<?xml version="1.0"?>
<VTKFile type="UnstructuredGrid">
<UnstructuredGrid>
<Piece NumberOfPoints="4" NumberOfCells="1">
<Points>
<DataArray NumberOfComponents="3" type="Float32" format="ascii" >
0.996195
 -0.087156 0.
1.992389
 -0.174311 0.
0.996195
 0.087156 0.
1.992389
 0.174311 0.
</DataArray>
</Points>
<Cells>
<DataArray Name="connectivity" type="Int32" format="ascii" >
3 2 0 1 
</DataArray>
<DataArray Name="offsets" type="Int32" format="ascii" >
4 
</DataArray>
<DataArray Name="types" type="UInt8" format="ascii" >
10 
</DataArray>
</Cells>
<PointData Scalars="scalars" format="ascii">
<DataArray Name="DefGrad_F" NumberOfComponents="4" type="Float32" format="ascii" >
1.000000 0.000000 0.000000 1.000000 
0.500000 0.131233 0.000000 2.000000 
1.000000 0.000000 0.000000 1.000000 
0.500000 -0.131233 0.000000 2.000000 

</DataArray>
<DataArray Name="Vel" NumberOfComponents="2" type="Float32" format="ascii" >
0.099619 -0.008716 
0.049810 -0.004358 
0.099619 0.008716 
0.049810 0.004358 

</DataArray>
</PointData>
</Piece>
</UnstructuredGrid>
</VTKFile>
