<?xml version="1.0"?>
<VTKFile type="UnstructuredGrid">
<UnstructuredGrid>
<Piece NumberOfPoints="121" NumberOfCells="100">
<Points>
<DataArray NumberOfComponents="3" type="Float32" format="ascii" >
0.984808
 -0.173648 0.
1.083289
 -0.191013 0.
1.181769
 -0.208378 0.
1.280250
 -0.225743 0.
1.378731
 -0.243107 0.
1.477212
 -0.260472 0.
1.575692
 -0.277837 0.
1.674173
 -0.295202 0.
1.772654
 -0.312567 0.
1.871135
 -0.329932 0.
1.969616
 -0.347296 0.
0.990268
 -0.139173 0.
1.089295
 -0.153090 0.
1.188322
 -0.167008 0.
1.287348
 -0.180925 0.
1.386375
 -0.194842 0.
1.485402
 -0.208760 0.
1.584429
 -0.222677 0.
1.683456
 -0.236594 0.
1.782483
 -0.250512 0.
1.881509
 -0.264429 0.
1.980536
 -0.278346 0.
0.994522
 -0.104528 0.
1.093974
 -0.114981 0.
1.193426
 -0.125434 0.
1.292878
 -0.135887 0.
1.392331
 -0.146340 0.
1.491783
 -0.156793 0.
1.591235
 -0.167246 0.
1.690687
 -0.177698 0.
1.790139
 -0.188151 0.
1.889592
 -0.198604 0.
1.989044
 -0.209057 0.
0.997564
 -0.069756 0.
1.097320
 -0.076732 0.
1.197077
 -0.083708 0.
1.296833
 -0.090683 0.
1.396590
 -0.097659 0.
1.496346
 -0.104635 0.
1.596102
 -0.111610 0.
1.695859
 -0.118586 0.
1.795615
 -0.125562 0.
1.895372
 -0.132537 0.
1.995128
 -0.139513 0.
0.999391
 -0.034899 0.
1.099330
 -0.038389 0.
1.199269
 -0.041879 0.
1.299208
 -0.045369 0.
1.399147
 -0.048859 0.
1.499086
 -0.052349 0.
1.599025
 -0.055839 0.
1.698964
 -0.059329 0.
1.798903
 -0.062819 0.
1.898843
 -0.066309 0.
1.998782
 -0.069799 0.
1.000000
 0.000000 0.
1.100000
 0.000000 0.
1.200000
 0.000000 0.
1.300000
 0.000000 0.
1.400000
 0.000000 0.
1.500000
 0.000000 0.
1.600000
 0.000000 0.
1.700000
 0.000000 0.
1.800000
 0.000000 0.
1.900000
 0.000000 0.
2.000000
 0.000000 0.
0.999391
 0.034899 0.
1.099330
 0.038389 0.
1.199269
 0.041879 0.
1.299208
 0.045369 0.
1.399147
 0.048859 0.
1.499086
 0.052349 0.
1.599025
 0.055839 0.
1.698964
 0.059329 0.
1.798903
 0.062819 0.
1.898843
 0.066309 0.
1.998782
 0.069799 0.
0.997564
 0.069756 0.
1.097320
 0.076732 0.
1.197077
 0.083708 0.
1.296833
 0.090683 0.
1.396590
 0.097659 0.
1.496346
 0.104635 0.
1.596102
 0.111610 0.
1.695859
 0.118586 0.
1.795615
 0.125562 0.
1.895372
 0.132537 0.
1.995128
 0.139513 0.
0.994522
 0.104528 0.
1.093974
 0.114981 0.
1.193426
 0.125434 0.
1.292878
 0.135887 0.
1.392331
 0.146340 0.
1.491783
 0.156793 0.
1.591235
 0.167246 0.
1.690687
 0.177698 0.
1.790139
 0.188151 0.
1.889592
 0.198604 0.
1.989044
 0.209057 0.
0.990268
 0.139173 0.
1.089295
 0.153090 0.
1.188322
 0.167008 0.
1.287348
 0.180925 0.
1.386375
 0.194842 0.
1.485402
 0.208760 0.
1.584429
 0.222677 0.
1.683456
 0.236594 0.
1.782483
 0.250512 0.
1.881509
 0.264429 0.
1.980536
 0.278346 0.
0.984808
 0.173648 0.
1.083289
 0.191013 0.
1.181769
 0.208378 0.
1.280250
 0.225743 0.
1.378731
 0.243107 0.
1.477212
 0.260472 0.
1.575692
 0.277837 0.
1.674173
 0.295202 0.
1.772654
 0.312567 0.
1.871135
 0.329932 0.
1.969616
 0.347296 0.
</DataArray>
</Points>
<Cells>
<DataArray Name="connectivity" type="Int32" format="ascii" >
12 11 0 1 
13 12 1 2 
14 13 2 3 
15 14 3 4 
16 15 4 5 
17 16 5 6 
18 17 6 7 
19 18 7 8 
20 19 8 9 
21 20 9 10 
23 22 11 12 
24 23 12 13 
25 24 13 14 
26 25 14 15 
27 26 15 16 
28 27 16 17 
29 28 17 18 
30 29 18 19 
31 30 19 20 
32 31 20 21 
34 33 22 23 
35 34 23 24 
36 35 24 25 
37 36 25 26 
38 37 26 27 
39 38 27 28 
40 39 28 29 
41 40 29 30 
42 41 30 31 
43 42 31 32 
45 44 33 34 
46 45 34 35 
47 46 35 36 
48 47 36 37 
49 48 37 38 
50 49 38 39 
51 50 39 40 
52 51 40 41 
53 52 41 42 
54 53 42 43 
56 55 44 45 
57 56 45 46 
58 57 46 47 
59 58 47 48 
60 59 48 49 
61 60 49 50 
62 61 50 51 
63 62 51 52 
64 63 52 53 
65 64 53 54 
67 66 55 56 
68 67 56 57 
69 68 57 58 
70 69 58 59 
71 70 59 60 
72 71 60 61 
73 72 61 62 
74 73 62 63 
75 74 63 64 
76 75 64 65 
78 77 66 67 
79 78 67 68 
80 79 68 69 
81 80 69 70 
82 81 70 71 
83 82 71 72 
84 83 72 73 
85 84 73 74 
86 85 74 75 
87 86 75 76 
89 88 77 78 
90 89 78 79 
91 90 79 80 
92 91 80 81 
93 92 81 82 
94 93 82 83 
95 94 83 84 
96 95 84 85 
97 96 85 86 
98 97 86 87 
100 99 88 89 
101 100 89 90 
102 101 90 91 
103 102 91 92 
104 103 92 93 
105 104 93 94 
106 105 94 95 
107 106 95 96 
108 107 96 97 
109 108 97 98 
111 110 99 100 
112 111 100 101 
113 112 101 102 
114 113 102 103 
115 114 103 104 
116 115 104 105 
117 116 105 106 
118 117 106 107 
119 118 107 108 
120 119 108 109 
</DataArray>
<DataArray Name="offsets" type="Int32" format="ascii" >
4 8 12 16 20 24 28 32 36 40 44 48 52 56 60 64 68 72 76 80 84 88 92 96 100 104 108 112 116 120 124 128 132 136 140 144 148 152 156 160 164 168 172 176 180 184 188 192 196 200 204 208 212 216 220 224 228 232 236 240 244 248 252 256 260 264 268 272 276 280 284 288 292 296 300 304 308 312 316 320 324 328 332 336 340 344 348 352 356 360 364 368 372 376 380 384 388 392 396 400 
</DataArray>
<DataArray Name="types" type="UInt8" format="ascii" >
10 10 10 10 10 10 10 10 10 10 10 10 10 10 10 10 10 10 10 10 10 10 10 10 10 10 10 10 10 10 10 10 10 10 10 10 10 10 10 10 10 10 10 10 10 10 10 10 10 10 10 10 10 10 10 10 10 10 10 10 10 10 10 10 10 10 10 10 10 10 10 10 10 10 10 10 10 10 10 10 10 10 10 10 10 10 10 10 10 10 10 10 10 10 10 10 10 10 10 10 
</DataArray>
</Cells>
<PointData Scalars="scalars" format="ascii">
<DataArray Name="DefGrad_F" NumberOfComponents="4" type="Float32" format="ascii" >
1.000000 0.000000 0.000000 1.000000 
891.425506 -79.155330 -100.973873 -1511.427936 
1721.487859 -163.588088 -194.922862 -3148.792195 
2495.265839 -253.838689 -282.283294 -4921.005067 
3216.771262 -350.508248 -363.482434 -6839.279820 
3889.420446 -454.202986 -438.898295 -8915.211462 
4516.627555 -565.598510 -508.906403 -11161.854228 
5101.452361 -685.408368 -573.838750 -13593.095904 
5646.868995 -814.428987 -634.001867 -16224.646739 
6154.362855 -953.468213 -689.428052 -19073.065298 
6615.055972 -1102.942885 -738.191997 -22150.981863 
1.000000 0.000000 0.000000 1.000000 
900.039943 -76.037337 -97.306673 -1525.596641 
1738.261176 -158.704119 -188.046220 -3178.193371 
2519.828350 -248.525551 -272.637106 -4966.995122 
3248.738878 -346.082769 -351.481429 -6903.317237 
3928.846803 -452.020327 -424.973015 -8999.760147 
4562.946773 -566.939390 -493.406787 -11268.141736 
5154.377585 -691.583471 -557.128553 -13723.019833 
5705.924869 -826.733592 -616.438050 -16379.729510 
6219.075269 -973.232564 -671.518251 -19254.783209 
6685.734591 -1131.874105 -721.596404 -22363.528010 
1.000000 0.000000 0.000000 1.000000 
912.139575 -79.452267 -96.550013 -1547.715598 
1761.431634 -165.303006 -186.630597 -3223.900263 
2553.295942 -258.116742 -270.687909 -5038.175673 
3291.606888 -358.476563 -349.122799 -7001.646105 
3980.001733 -467.015542 -422.310113 -9126.387797 
4622.009272 -584.433483 -490.616434 -11425.814752 
5220.767700 -711.471522 -554.373280 -13914.184977 
5779.060703 -848.929873 -613.873152 -16606.904877 
6298.351353 -997.666029 -669.267033 -19520.548700 
6770.714308 -1158.510751 -719.707373 -22671.459508 
1.000000 0.000000 0.000000 1.000000 
922.888509 -80.964403 -95.742350 -1566.461121 
1782.370650 -168.532746 -185.170415 -3263.236524 
2583.799359 -263.262202 -268.721704 -5099.924069 
3331.138002 -365.746077 -346.798566 -7087.872569 
4028.101655 -476.628199 -419.782440 -9239.442325 
4678.106890 -596.598990 -488.029929 -11567.942224 
5284.363449 -726.410849 -551.873441 -14087.853932 
5849.698692 -866.874351 -611.612909 -16814.833484 
6375.575745 -1018.853526 -667.421298 -19765.659159 
6853.740023 -1183.142702 -718.548696 -22956.377214 
1.000000 0.000000 0.000000 1.000000 
934.600758 -82.676597 -95.676573 -1587.041605 
1804.974639 -172.031588 -185.099894 -3306.064153 
2616.448289 -268.619172 -268.710242 -5166.650624 
3373.130853 -373.047022 -346.926866 -7180.416644 
4078.823123 -485.970130 -420.140151 -9359.918846 
4737.027235 -608.095093 -488.712835 -11718.728717 
5350.913942 -740.176560 -552.979358 -14271.392888 
5923.358224 -883.038434 -613.244533 -17033.788308 
6455.862679 -1037.561126 -669.684820 -20022.961014 
6940.174953 -1204.570088 -721.561989 -23255.474610 
1.000000 0.000000 0.000000 1.000000 
946.706410 -84.050331 -96.267177 -1608.085778 
1828.487568 -174.880697 -186.295225 -3350.069638 
2650.755307 -273.053301 -270.537400 -5235.762218 
3417.509570 -379.169031 -349.406495 -7276.731515 
4132.488021 -493.879489 -423.290309 -9485.537114 
4799.241649 -617.895658 -492.559180 -11875.893704 
5421.069213 -751.988064 -557.559635 -14462.676964 
6000.859308 -896.985771 -618.599191 -17261.909867 
6540.046048 -1053.769246 -675.847408 -20290.673150 
7029.815892 -1223.142599 -728.498585 -23565.041287 
1.000000 0.000000 0.000000 1.000000 
958.662777 -85.120168 -97.488942 -1628.952550 
1851.437679 -177.090807 -188.661765 -3393.332300 
2683.763664 -276.470743 -273.981233 -5302.996197 
3459.855160 -383.872429 -353.888984 -7369.857735 
4183.617576 -499.959234 -428.795707 -9606.811165 
4858.643754 -625.447753 -499.080233 -12027.779123 
5488.186943 -761.107472 -565.084511 -14647.684806 
6075.191367 -907.776153 -627.123602 -17482.809601 
6621.150861 -1066.348972 -685.369378 -20550.578146 
7117.215983 -1237.661077 -738.962952 -23867.454396 
1.000000 0.000000 0.000000 1.000000 
970.660278 -85.966484 -99.465229 -1650.049529 
1874.617173 -178.824729 -192.471653 -3437.271280 
2717.452904 -279.141376 -279.511491 -5371.819506 
3503.343026 -387.525373 -361.032874 -7465.643303 
4236.195317 -504.641012 -437.453378 -9731.742949 
4919.610483 -631.205484 -509.156198 -12184.130444 
5556.972671 -767.997358 -576.508075 -14838.062202 
6151.251340 -915.859283 -639.828210 -17710.007462 
6703.937418 -1075.693761 -699.273050 -20817.574537 
7205.932535 -1248.357990 -753.833341 -24177.209473 
1.000000 0.000000 0.000000 1.000000 
982.669528 -86.205609 -101.833185 -1671.497650 
1897.642538 -179.441230 -197.018916 -3481.614500 
2750.680455 -280.273948 -286.078489 -5440.822926 
3545.962731 -389.302193 -369.463133 -7561.112072 
4287.414162 -507.177109 -447.601005 -9855.524009 
4978.837053 -634.625143 -520.905042 -12338.541526 
5623.612004 -772.420057 -589.740118 -15025.547082 
6224.733337 -921.398088 -654.432993 -17933.161401 
6783.728777 -1082.463271 -715.144069 -21079.226956 
7291.669526 -1256.534743 -770.804469 -24481.042088 
1.000000 0.000000 0.000000 1.000000 
994.262380 -87.473255 -106.088140 -1692.354334 
1920.265169 -181.657059 -205.157632 -3525.539255 
2783.619196 -283.115373 -297.740539 -5509.875527 
3588.739026 -392.474952 -384.345201 -7657.903282 
4339.878603 -510.436083 -465.455372 -9983.587824 
5040.147315 -637.657817 -541.422684 -12500.036766 
5693.229739 -774.949613 -612.663523 -15223.386519 
6302.200940 -923.166166 -679.510682 -18170.627133 
6868.686332 -1083.229109 -742.073452 -21360.059095 
7383.599923 -1256.020100 -798.881883 -24808.756460 
1.000000 0.000000 0.000000 1.000000 
1006.374497 -82.713740 -105.658342 -1714.790398 
1943.451100 -173.609938 -204.406316 -3571.457302 
2816.814638 -273.208486 -296.756234 -5580.205149 
3631.003790 -382.103970 -383.217165 -7753.717240 
4389.897894 -500.927099 -464.213119 -10105.052941 
5097.357346 -630.396008 -540.165628 -12648.898183 
5756.849773 -771.280015 -611.459556 -15400.891646 
6371.743951 -924.462254 -678.478031 -18378.748988 
6943.772966 -1090.918938 -741.498756 -21601.307845 
7463.342365 -1271.711890 -800.070703 -25084.567254 

</DataArray>
<DataArray Name="Vel" NumberOfComponents="2" type="Float32" format="ascii" >
0.098481 -0.017365 
0.089528 -0.015786 
0.082067 -0.014471 
0.075754 -0.013358 
0.070343 -0.012403 
0.065654 -0.011577 
0.061550 -0.010853 
0.057930 -0.010215 
0.054712 -0.009647 
0.051832 -0.009139 
0.049240 -0.008682 
0.099027 -0.013917 
0.090024 -0.012652 
0.082522 -0.011598 
0.076174 -0.010706 
0.070733 -0.009941 
0.066018 -0.009278 
0.061892 -0.008698 
0.058251 -0.008187 
0.055015 -0.007732 
0.052119 -0.007325 
0.049513 -0.006959 
0.099452 -0.010453 
0.090411 -0.009503 
0.082877 -0.008711 
0.076502 -0.008041 
0.071037 -0.007466 
0.066301 -0.006969 
0.062158 -0.006533 
0.058501 -0.006149 
0.055251 -0.005807 
0.052343 -0.005501 
0.049726 -0.005226 
0.099756 -0.006976 
0.090688 -0.006341 
0.083130 -0.005813 
0.076736 -0.005366 
0.071255 -0.004983 
0.066504 -0.004650 
0.062348 -0.004360 
0.058680 -0.004103 
0.055420 -0.003875 
0.052503 -0.003671 
0.049878 -0.003488 
0.099939 -0.003490 
0.090854 -0.003173 
0.083283 -0.002908 
0.076876 -0.002685 
0.071385 -0.002493 
0.066626 -0.002327 
0.062462 -0.002181 
0.058788 -0.002053 
0.055522 -0.001939 
0.052600 -0.001837 
0.049970 -0.001745 
0.100000 0.000000 
0.090909 0.000000 
0.083333 0.000000 
0.076923 0.000000 
0.071429 0.000000 
0.066667 0.000000 
0.062500 0.000000 
0.058824 0.000000 
0.055556 0.000000 
0.052632 0.000000 
0.050000 0.000000 
0.099939 0.003490 
0.090854 0.003173 
0.083283 0.002908 
0.076876 0.002685 
0.071385 0.002493 
0.066626 0.002327 
0.062462 0.002181 
0.058788 0.002053 
0.055522 0.001939 
0.052600 0.001837 
0.049970 0.001745 
0.099756 0.006976 
0.090688 0.006341 
0.083130 0.005813 
0.076736 0.005366 
0.071255 0.004983 
0.066504 0.004650 
0.062348 0.004360 
0.058680 0.004103 
0.055420 0.003875 
0.052503 0.003671 
0.049878 0.003488 
0.099452 0.010453 
0.090411 0.009503 
0.082877 0.008711 
0.076502 0.008041 
0.071037 0.007466 
0.066301 0.006969 
0.062158 0.006533 
0.058501 0.006149 
0.055251 0.005807 
0.052343 0.005501 
0.049726 0.005226 
0.099027 0.013917 
0.090024 0.012652 
0.082522 0.011598 
0.076174 0.010706 
0.070733 0.009941 
0.066018 0.009278 
0.061892 0.008698 
0.058251 0.008187 
0.055015 0.007732 
0.052119 0.007325 
0.049513 0.006959 
0.098481 0.017365 
0.089528 0.015786 
0.082067 0.014471 
0.075754 0.013358 
0.070343 0.012403 
0.065654 0.011577 
0.061550 0.010853 
0.057930 0.010215 
0.054712 0.009647 
0.051832 0.009139 
0.049240 0.008682 

</DataArray>
</PointData>
</Piece>
</UnstructuredGrid>
</VTKFile>
