<?xml version="1.0"?>
<VTKFile type="UnstructuredGrid">
<UnstructuredGrid>
<Piece NumberOfPoints="6" NumberOfCells="2">
<Points>
<DataArray NumberOfComponents="3" type="Float32" format="ascii" >
1.999888
 -0.020000 0.
2.049879
 -0.021012 0.
2.099870
 -0.022049 0.
1.999988
 -0.000000 0.
2.049987
 0.000512 0.
2.099986
 0.001050 0.
</DataArray>
</Points>
<Cells>
<DataArray Name="connectivity" type="Int32" format="ascii" >
4 3 0 1 
5 4 1 2 
</DataArray>
<DataArray Name="offsets" type="Int32" format="ascii" >
4 8 
</DataArray>
<DataArray Name="types" type="UInt8" format="ascii" >
10 10 
</DataArray>
</Cells>
<PointData Scalars="scalars" format="ascii">
<DataArray Name="DefGrad_F" NumberOfComponents="6" type="Float32" format="ascii" >
1.000000 0.000000 1.001000 0.000000 1.000000 0.000000 
1.000000 0.000000 1.001000 0.000000 1.000000 0.000000 
1.000000 0.000000 0.000000 1.000000 1.002839 0.000000 
-0.000014 1.000000 1.001588 0.000000 -0.000008 1.000000 
1.000000 0.000000 0.000000 1.000000 0.990223 0.000000 
0.000049 1.000000 0.996354 0.000000 0.000018 1.000000 

</DataArray>
<DataArray Name="Vel" NumberOfComponents="2" type="Float32" format="ascii" >
0.049998 -0.000500 
0.048778 -0.000500 
0.047617 -0.000500 
0.050000 -0.000000 
0.048781 0.000012 
0.047619 0.000024 

</DataArray>
</PointData>
</Piece>
</UnstructuredGrid>
</VTKFile>
