<?xml version="1.0"?>
<VTKFile type="UnstructuredGrid">
<UnstructuredGrid>
<Piece NumberOfPoints="25" NumberOfCells="16">
<Points>
<DataArray NumberOfComponents="3" type="Float32" format="ascii" >
0.984808
 -0.173648 0.
1.231010
 -0.217060 0.
1.477212
 -0.260472 0.
1.723414
 -0.303884 0.
1.969616
 -0.347296 0.
0.996195
 -0.087156 0.
1.245243
 -0.108945 0.
1.494292
 -0.130734 0.
1.743341
 -0.152523 0.
1.992389
 -0.174311 0.
1.000000
 0.000000 0.
1.250000
 0.000000 0.
1.500000
 0.000000 0.
1.750000
 0.000000 0.
2.000000
 0.000000 0.
0.996195
 0.087156 0.
1.245243
 0.108945 0.
1.494292
 0.130734 0.
1.743341
 0.152523 0.
1.992389
 0.174311 0.
0.984808
 0.173648 0.
1.231010
 0.217060 0.
1.477212
 0.260472 0.
1.723414
 0.303884 0.
1.969616
 0.347296 0.
</DataArray>
</Points>
<Cells>
<DataArray Name="connectivity" type="Int32" format="ascii" >
6 5 0 1 
7 6 1 2 
8 7 2 3 
9 8 3 4 
11 10 5 6 
12 11 6 7 
13 12 7 8 
14 13 8 9 
16 15 10 11 
17 16 11 12 
18 17 12 13 
19 18 13 14 
21 20 15 16 
22 21 16 17 
23 22 17 18 
24 23 18 19 
</DataArray>
<DataArray Name="offsets" type="Int32" format="ascii" >
4 8 12 16 20 24 28 32 36 40 44 48 52 56 60 64 
</DataArray>
<DataArray Name="types" type="UInt8" format="ascii" >
10 10 10 10 10 10 10 10 10 10 10 10 10 10 10 10 
</DataArray>
</Cells>
<PointData Scalars="scalars" format="ascii">
<DataArray Name="DefGrad_F" NumberOfComponents="4" type="Float32" format="ascii" >
1.000000 0.000000 0.000000 1.000000 
67.195464 -7.061423 -7.500587 -93.176003 
123.873177 -15.035282 -13.856181 -206.132722 
172.633507 -24.182867 -19.239505 -341.064524 
214.071310 -34.798208 -23.727371 -503.313721 
1.000000 0.000000 0.000000 1.000000 
70.627115 -6.428860 -7.374949 -98.326301 
130.260161 -14.272924 -13.703234 -217.373714 
181.566431 -23.760630 -19.160800 -359.506104 
225.160602 -35.300590 -23.825611 -530.327325 
1.000000 0.000000 0.000000 1.000000 
74.173103 -7.287288 -7.378670 -103.493987 
136.826978 -15.940822 -13.812748 -228.734763 
190.718169 -26.199378 -19.490997 -378.264571 
236.492387 -38.483477 -24.475788 -557.977121 
1.000000 0.000000 0.000000 1.000000 
77.799694 -7.870579 -7.869893 -108.806599 
143.532457 -16.991098 -14.743147 -240.427021 
200.047039 -27.607162 -20.832731 -397.588965 
248.028795 -40.110826 -26.169893 -586.489392 
1.000000 0.000000 0.000000 1.000000 
81.730555 -6.636406 -8.233343 -114.732642 
150.806398 -15.145913 -15.424809 -253.358960 
210.174382 -25.724795 -21.803361 -418.810763 
260.559576 -38.877336 -27.385456 -617.591349 

</DataArray>
<DataArray Name="Vel" NumberOfComponents="2" type="Float32" format="ascii" >
0.098481 -0.017365 
0.078785 -0.013892 
0.065654 -0.011577 
0.056275 -0.009923 
0.049240 -0.008682 
0.099619 -0.008716 
0.079696 -0.006972 
0.066413 -0.005810 
0.056925 -0.004980 
0.049810 -0.004358 
0.100000 0.000000 
0.080000 0.000000 
0.066667 0.000000 
0.057143 0.000000 
0.050000 0.000000 
0.099619 0.008716 
0.079696 0.006972 
0.066413 0.005810 
0.056925 0.004980 
0.049810 0.004358 
0.098481 0.017365 
0.078785 0.013892 
0.065654 0.011577 
0.056275 0.009923 
0.049240 0.008682 

</DataArray>
</PointData>
</Piece>
</UnstructuredGrid>
</VTKFile>
