<?xml version="1.0"?>
<VTKFile type="UnstructuredGrid">
<UnstructuredGrid>
<Piece NumberOfPoints="6" NumberOfCells="2">
<Points>
<DataArray NumberOfComponents="3" type="Float32" format="ascii" >
1.865709
 -0.677194 0.
2.246504
 -1.043934 0.
2.574386
 -1.480255 0.
1.984807
 -0.001756 0.
2.468069
 0.212628 0.
2.925408
 0.510493 0.
</DataArray>
</Points>
<Cells>
<DataArray Name="connectivity" type="Int32" format="ascii" >
4 3 0 1 
5 4 1 2 
</DataArray>
<DataArray Name="offsets" type="Int32" format="ascii" >
4 8 
</DataArray>
<DataArray Name="types" type="UInt8" format="ascii" >
10 10 
</DataArray>
</Cells>
<PointData Scalars="scalars" format="ascii">
<DataArray Name="DefGrad_F" NumberOfComponents="6" type="Float32" format="ascii" >
1.000000 0.000000 1.001000 0.000000 1.000000 -0.000000 
1.000000 0.000000 1.001000 0.000000 1.000000 0.000000 
1.000000 0.000000 0.000000 1.000000 1.000800 0.000000 
-0.000141 1.000000 1.001382 0.000000 -0.000244 1.000000 
1.000000 0.000000 0.000000 1.000000 0.998081 -0.000000 
0.000338 1.000000 0.998589 -0.000000 0.000249 1.000000 

</DataArray>
<DataArray Name="Vel" NumberOfComponents="2" type="Float32" format="ascii" >
0.047359 -0.017190 
0.036608 -0.017012 
0.029193 -0.016786 
0.050383 -0.000045 
0.040219 0.003465 
0.033173 0.005789 

</DataArray>
</PointData>
</Piece>
</UnstructuredGrid>
</VTKFile>
