<?xml version="1.0"?>
<VTKFile type="UnstructuredGrid">
<UnstructuredGrid>
<Piece NumberOfPoints="121" NumberOfCells="100">
<Points>
<DataArray NumberOfComponents="3" type="Float32" format="ascii" >
0.984808
 -0.173648 0.
1.083289
 -0.191013 0.
1.181769
 -0.208378 0.
1.280250
 -0.225743 0.
1.378731
 -0.243107 0.
1.477212
 -0.260472 0.
1.575692
 -0.277837 0.
1.674173
 -0.295202 0.
1.772654
 -0.312567 0.
1.871135
 -0.329932 0.
1.969616
 -0.347296 0.
0.990268
 -0.139173 0.
1.089295
 -0.153090 0.
1.188322
 -0.167008 0.
1.287348
 -0.180925 0.
1.386375
 -0.194842 0.
1.485402
 -0.208760 0.
1.584429
 -0.222677 0.
1.683456
 -0.236594 0.
1.782483
 -0.250512 0.
1.881509
 -0.264429 0.
1.980536
 -0.278346 0.
0.994522
 -0.104528 0.
1.093974
 -0.114981 0.
1.193426
 -0.125434 0.
1.292878
 -0.135887 0.
1.392331
 -0.146340 0.
1.491783
 -0.156793 0.
1.591235
 -0.167246 0.
1.690687
 -0.177698 0.
1.790139
 -0.188151 0.
1.889592
 -0.198604 0.
1.989044
 -0.209057 0.
0.997564
 -0.069756 0.
1.097320
 -0.076732 0.
1.197077
 -0.083708 0.
1.296833
 -0.090683 0.
1.396590
 -0.097659 0.
1.496346
 -0.104635 0.
1.596102
 -0.111610 0.
1.695859
 -0.118586 0.
1.795615
 -0.125562 0.
1.895372
 -0.132537 0.
1.995128
 -0.139513 0.
0.999391
 -0.034899 0.
1.099330
 -0.038389 0.
1.199269
 -0.041879 0.
1.299208
 -0.045369 0.
1.399147
 -0.048859 0.
1.499086
 -0.052349 0.
1.599025
 -0.055839 0.
1.698964
 -0.059329 0.
1.798903
 -0.062819 0.
1.898843
 -0.066309 0.
1.998782
 -0.069799 0.
1.000000
 0.000000 0.
1.100000
 0.000000 0.
1.200000
 0.000000 0.
1.300000
 0.000000 0.
1.400000
 0.000000 0.
1.500000
 0.000000 0.
1.600000
 0.000000 0.
1.700000
 0.000000 0.
1.800000
 0.000000 0.
1.900000
 0.000000 0.
2.000000
 0.000000 0.
0.999391
 0.034899 0.
1.099330
 0.038389 0.
1.199269
 0.041879 0.
1.299208
 0.045369 0.
1.399147
 0.048859 0.
1.499086
 0.052349 0.
1.599025
 0.055839 0.
1.698964
 0.059329 0.
1.798903
 0.062819 0.
1.898843
 0.066309 0.
1.998782
 0.069799 0.
0.997564
 0.069756 0.
1.097320
 0.076732 0.
1.197077
 0.083708 0.
1.296833
 0.090683 0.
1.396590
 0.097659 0.
1.496346
 0.104635 0.
1.596102
 0.111610 0.
1.695859
 0.118586 0.
1.795615
 0.125562 0.
1.895372
 0.132537 0.
1.995128
 0.139513 0.
0.994522
 0.104528 0.
1.093974
 0.114981 0.
1.193426
 0.125434 0.
1.292878
 0.135887 0.
1.392331
 0.146340 0.
1.491783
 0.156793 0.
1.591235
 0.167246 0.
1.690687
 0.177698 0.
1.790139
 0.188151 0.
1.889592
 0.198604 0.
1.989044
 0.209057 0.
0.990268
 0.139173 0.
1.089295
 0.153090 0.
1.188322
 0.167008 0.
1.287348
 0.180925 0.
1.386375
 0.194842 0.
1.485402
 0.208760 0.
1.584429
 0.222677 0.
1.683456
 0.236594 0.
1.782483
 0.250512 0.
1.881509
 0.264429 0.
1.980536
 0.278346 0.
0.984808
 0.173648 0.
1.083289
 0.191013 0.
1.181769
 0.208378 0.
1.280250
 0.225743 0.
1.378731
 0.243107 0.
1.477212
 0.260472 0.
1.575692
 0.277837 0.
1.674173
 0.295202 0.
1.772654
 0.312567 0.
1.871135
 0.329932 0.
1.969616
 0.347296 0.
</DataArray>
</Points>
<Cells>
<DataArray Name="connectivity" type="Int32" format="ascii" >
12 11 0 1 
13 12 1 2 
14 13 2 3 
15 14 3 4 
16 15 4 5 
17 16 5 6 
18 17 6 7 
19 18 7 8 
20 19 8 9 
21 20 9 10 
23 22 11 12 
24 23 12 13 
25 24 13 14 
26 25 14 15 
27 26 15 16 
28 27 16 17 
29 28 17 18 
30 29 18 19 
31 30 19 20 
32 31 20 21 
34 33 22 23 
35 34 23 24 
36 35 24 25 
37 36 25 26 
38 37 26 27 
39 38 27 28 
40 39 28 29 
41 40 29 30 
42 41 30 31 
43 42 31 32 
45 44 33 34 
46 45 34 35 
47 46 35 36 
48 47 36 37 
49 48 37 38 
50 49 38 39 
51 50 39 40 
52 51 40 41 
53 52 41 42 
54 53 42 43 
56 55 44 45 
57 56 45 46 
58 57 46 47 
59 58 47 48 
60 59 48 49 
61 60 49 50 
62 61 50 51 
63 62 51 52 
64 63 52 53 
65 64 53 54 
67 66 55 56 
68 67 56 57 
69 68 57 58 
70 69 58 59 
71 70 59 60 
72 71 60 61 
73 72 61 62 
74 73 62 63 
75 74 63 64 
76 75 64 65 
78 77 66 67 
79 78 67 68 
80 79 68 69 
81 80 69 70 
82 81 70 71 
83 82 71 72 
84 83 72 73 
85 84 73 74 
86 85 74 75 
87 86 75 76 
89 88 77 78 
90 89 78 79 
91 90 79 80 
92 91 80 81 
93 92 81 82 
94 93 82 83 
95 94 83 84 
96 95 84 85 
97 96 85 86 
98 97 86 87 
100 99 88 89 
101 100 89 90 
102 101 90 91 
103 102 91 92 
104 103 92 93 
105 104 93 94 
106 105 94 95 
107 106 95 96 
108 107 96 97 
109 108 97 98 
111 110 99 100 
112 111 100 101 
113 112 101 102 
114 113 102 103 
115 114 103 104 
116 115 104 105 
117 116 105 106 
118 117 106 107 
119 118 107 108 
120 119 108 109 
</DataArray>
<DataArray Name="offsets" type="Int32" format="ascii" >
4 8 12 16 20 24 28 32 36 40 44 48 52 56 60 64 68 72 76 80 84 88 92 96 100 104 108 112 116 120 124 128 132 136 140 144 148 152 156 160 164 168 172 176 180 184 188 192 196 200 204 208 212 216 220 224 228 232 236 240 244 248 252 256 260 264 268 272 276 280 284 288 292 296 300 304 308 312 316 320 324 328 332 336 340 344 348 352 356 360 364 368 372 376 380 384 388 392 396 400 
</DataArray>
<DataArray Name="types" type="UInt8" format="ascii" >
10 10 10 10 10 10 10 10 10 10 10 10 10 10 10 10 10 10 10 10 10 10 10 10 10 10 10 10 10 10 10 10 10 10 10 10 10 10 10 10 10 10 10 10 10 10 10 10 10 10 10 10 10 10 10 10 10 10 10 10 10 10 10 10 10 10 10 10 10 10 10 10 10 10 10 10 10 10 10 10 10 10 10 10 10 10 10 10 10 10 10 10 10 10 10 10 10 10 10 10 
</DataArray>
</Cells>
<PointData Scalars="scalars" format="ascii">
<DataArray Name="Var" NumberOfComponents="4" type="Float32" format="ascii" >
1.000000 0.000000 0.000000 1.000000 1.000000 0.000000 3.496247 0.503554 1.000000 0.000000 3.284410 0.305968 1.000000 0.000000 2.399271 0.382138 1.000000 0.000000 0.926219 0.897136 1.000000 0.000000 4.059629 -0.621242 1.000000 0.000000 3.180219 -1.052710 1.000000 0.000000 24.830235 -11.507258 1.000000 0.000000 44.138230 -20.585390 1.000000 0.000000 176.873203 -85.656508 1.000000 0.000000 290.938776 -125.432255 1.000000 0.000000 0.000000 1.000000 1.000000 0.000000 -0.121405 1.019361 1.000000 0.000000 -0.642373 1.143609 1.000000 0.000000 0.817909 0.533625 1.000000 0.000000 -1.007603 1.003289 1.000000 0.000000 14.502001 -4.464673 1.000000 0.000000 2.508126 -0.621869 1.000000 0.000000 82.659639 -26.325224 1.000000 0.000000 36.065255 -12.549801 1.000000 0.000000 308.825001 -113.314207 1.000000 0.000000 683.240856 -260.082411 1.000000 0.000000 0.000000 1.000000 1.000000 0.000000 -0.000587 0.990091 1.000000 0.000000 1.013566 0.730272 1.000000 0.000000 3.397701 -0.266289 1.000000 0.000000 0.434438 1.295939 1.000000 0.000000 23.831821 -7.331724 1.000000 0.000000 -62.379994 22.156002 1.000000 0.000000 145.259359 -47.198470 1.000000 0.000000 -424.364594 116.190671 1.000000 0.000000 1109.033585 -343.476877 1.000000 0.000000 2775.777128 -1111.548676 1.000000 0.000000 0.000000 1.000000 1.000000 0.000000 0.374412 0.874047 1.000000 0.000000 -0.256530 1.110943 1.000000 0.000000 -0.613005 1.070300 1.000000 0.000000 -10.429898 4.852867 1.000000 0.000000 14.617890 -5.748762 1.000000 0.000000 -98.810396 34.713178 1.000000 0.000000 418.599317 -143.308853 1.000000 0.000000 -644.712353 190.718118 1.000000 0.000000 5371.166366 -1631.673829 1.000000 0.000000 9971.421778 -3829.114828 1.000000 0.000000 0.000000 1.000000 1.000000 0.000000 -0.144380 1.037708 1.000000 0.000000 -0.907847 1.333633 1.000000 0.000000 2.814351 -0.039893 1.000000 0.000000 -1.326760 1.561825 1.000000 0.000000 56.788089 -19.052949 1.000000 0.000000 -86.309455 31.686342 1.000000 0.000000 671.477437 -217.506820 1.000000 0.000000 -813.149916 262.645992 1.000000 0.000000 12300.944129 -3828.859945 1.000000 0.000000 20635.565435 -7873.957711 1.000000 0.000000 0.000000 1.000000 1.000000 0.000000 0.086778 0.982915 1.000000 0.000000 0.817513 0.734968 1.000000 0.000000 1.534997 0.480939 1.000000 0.000000 -5.365071 2.944566 1.000000 0.000000 8.395992 -1.306573 1.000000 0.000000 -116.705957 42.862418 1.000000 0.000000 976.942936 -307.174041 1.000000 0.000000 968.435356 -350.599708 1.000000 0.000000 23073.190047 -7307.829515 1.000000 0.000000 34000.093654 -12585.025624 1.000000 0.000000 0.000000 1.000000 1.000000 0.000000 -0.045427 0.998769 1.000000 0.000000 -1.237838 1.459062 1.000000 0.000000 -0.490170 1.169457 1.000000 0.000000 -5.838730 3.227879 1.000000 0.000000 60.663111 -18.075179 1.000000 0.000000 230.003151 -74.290726 1.000000 0.000000 1818.571774 -584.626917 1.000000 0.000000 4003.588728 -1340.228937 1.000000 0.000000 26138.177241 -8133.060192 1.000000 0.000000 34467.267511 -11935.958950 1.000000 0.000000 0.000000 1.000000 1.000000 0.000000 -0.662820 1.285888 1.000000 0.000000 1.762440 0.424684 1.000000 0.000000 1.287610 0.599479 1.000000 0.000000 22.581737 -6.053081 1.000000 0.000000 124.495749 -39.386427 1.000000 0.000000 342.028982 -106.474912 1.000000 0.000000 2022.113967 -624.565167 1.000000 0.000000 3840.344154 -1212.011410 1.000000 0.000000 23964.637072 -7091.613959 1.000000 0.000000 30572.973573 -10290.243504 1.000000 0.000000 0.000000 1.000000 1.000000 0.000000 0.172841 0.902131 1.000000 0.000000 2.469004 0.020971 1.000000 0.000000 -1.291628 1.667839 1.000000 0.000000 59.646340 -18.256722 1.000000 0.000000 74.629192 -19.996476 1.000000 0.000000 716.959072 -218.094365 1.000000 0.000000 1642.856447 -503.331396 1.000000 0.000000 5452.839523 -1648.371288 1.000000 0.000000 18809.583585 -5660.496179 1.000000 0.000000 19039.147600 -6634.365783 1.000000 0.000000 0.000000 1.000000 1.000000 0.000000 1.344714 0.500694 1.000000 0.000000 0.569678 1.265780 1.000000 0.000000 18.835017 -5.018854 1.000000 0.000000 47.732549 -11.181284 1.000000 0.000000 147.200599 -43.961997 1.000000 0.000000 622.073871 -175.342716 1.000000 0.000000 733.216959 -205.706704 1.000000 0.000000 4203.037530 -1114.537614 1.000000 0.000000 3100.393745 -721.511892 1.000000 0.000000 8281.735841 264.885867 1.000000 0.000000 0.000000 1.000000 1.000000 0.000000 -0.116680 1.376674 1.000000 0.000000 -0.093155 1.000753 1.000000 0.000000 8.765412 0.247377 1.000000 0.000000 -1.637228 4.485621 1.000000 0.000000 68.546360 -7.465648 1.000000 0.000000 56.369538 38.164040 1.000000 0.000000 30.665439 48.941034 1.000000 0.000000 848.815424 220.991702 1.000000 0.000000 -785.499754 31.030895 1.000000 0.000000 -101729.574803 23945.632723 
</DataArray>
</PointData>
</Piece>
</UnstructuredGrid>
</VTKFile>
