<?xml version="1.0"?>
<VTKFile type="UnstructuredGrid">
<UnstructuredGrid>
<Piece NumberOfPoints="121" NumberOfCells="100">
<Points>
<DataArray NumberOfComponents="3" type="Float32" format="ascii" >
0.984808
 -0.173648 0.
1.083289
 -0.191013 0.
1.181769
 -0.208378 0.
1.280250
 -0.225743 0.
1.378731
 -0.243107 0.
1.477212
 -0.260472 0.
1.575692
 -0.277837 0.
1.674173
 -0.295202 0.
1.772654
 -0.312567 0.
1.871135
 -0.329932 0.
1.969616
 -0.347296 0.
0.990268
 -0.139173 0.
1.089295
 -0.153090 0.
1.188322
 -0.167008 0.
1.287348
 -0.180925 0.
1.386375
 -0.194842 0.
1.485402
 -0.208760 0.
1.584429
 -0.222677 0.
1.683456
 -0.236594 0.
1.782483
 -0.250512 0.
1.881509
 -0.264429 0.
1.980536
 -0.278346 0.
0.994522
 -0.104528 0.
1.093974
 -0.114981 0.
1.193426
 -0.125434 0.
1.292878
 -0.135887 0.
1.392331
 -0.146340 0.
1.491783
 -0.156793 0.
1.591235
 -0.167246 0.
1.690687
 -0.177698 0.
1.790139
 -0.188151 0.
1.889592
 -0.198604 0.
1.989044
 -0.209057 0.
0.997564
 -0.069756 0.
1.097320
 -0.076732 0.
1.197077
 -0.083708 0.
1.296833
 -0.090683 0.
1.396590
 -0.097659 0.
1.496346
 -0.104635 0.
1.596102
 -0.111610 0.
1.695859
 -0.118586 0.
1.795615
 -0.125562 0.
1.895372
 -0.132537 0.
1.995128
 -0.139513 0.
0.999391
 -0.034899 0.
1.099330
 -0.038389 0.
1.199269
 -0.041879 0.
1.299208
 -0.045369 0.
1.399147
 -0.048859 0.
1.499086
 -0.052349 0.
1.599025
 -0.055839 0.
1.698964
 -0.059329 0.
1.798903
 -0.062819 0.
1.898843
 -0.066309 0.
1.998782
 -0.069799 0.
1.000000
 0.000000 0.
1.100000
 0.000000 0.
1.200000
 0.000000 0.
1.300000
 0.000000 0.
1.400000
 0.000000 0.
1.500000
 0.000000 0.
1.600000
 0.000000 0.
1.700000
 0.000000 0.
1.800000
 0.000000 0.
1.900000
 0.000000 0.
2.000000
 0.000000 0.
0.999391
 0.034899 0.
1.099330
 0.038389 0.
1.199269
 0.041879 0.
1.299208
 0.045369 0.
1.399147
 0.048859 0.
1.499086
 0.052349 0.
1.599025
 0.055839 0.
1.698964
 0.059329 0.
1.798903
 0.062819 0.
1.898843
 0.066309 0.
1.998782
 0.069799 0.
0.997564
 0.069756 0.
1.097320
 0.076732 0.
1.197077
 0.083708 0.
1.296833
 0.090683 0.
1.396590
 0.097659 0.
1.496346
 0.104635 0.
1.596102
 0.111610 0.
1.695859
 0.118586 0.
1.795615
 0.125562 0.
1.895372
 0.132537 0.
1.995128
 0.139513 0.
0.994522
 0.104528 0.
1.093974
 0.114981 0.
1.193426
 0.125434 0.
1.292878
 0.135887 0.
1.392331
 0.146340 0.
1.491783
 0.156793 0.
1.591235
 0.167246 0.
1.690687
 0.177698 0.
1.790139
 0.188151 0.
1.889592
 0.198604 0.
1.989044
 0.209057 0.
0.990268
 0.139173 0.
1.089295
 0.153090 0.
1.188322
 0.167008 0.
1.287348
 0.180925 0.
1.386375
 0.194842 0.
1.485402
 0.208760 0.
1.584429
 0.222677 0.
1.683456
 0.236594 0.
1.782483
 0.250512 0.
1.881509
 0.264429 0.
1.980536
 0.278346 0.
0.984808
 0.173648 0.
1.083289
 0.191013 0.
1.181769
 0.208378 0.
1.280250
 0.225743 0.
1.378731
 0.243107 0.
1.477212
 0.260472 0.
1.575692
 0.277837 0.
1.674173
 0.295202 0.
1.772654
 0.312567 0.
1.871135
 0.329932 0.
1.969616
 0.347296 0.
</DataArray>
</Points>
<Cells>
<DataArray Name="connectivity" type="Int32" format="ascii" >
12 11 0 1 
13 12 1 2 
14 13 2 3 
15 14 3 4 
16 15 4 5 
17 16 5 6 
18 17 6 7 
19 18 7 8 
20 19 8 9 
21 20 9 10 
23 22 11 12 
24 23 12 13 
25 24 13 14 
26 25 14 15 
27 26 15 16 
28 27 16 17 
29 28 17 18 
30 29 18 19 
31 30 19 20 
32 31 20 21 
34 33 22 23 
35 34 23 24 
36 35 24 25 
37 36 25 26 
38 37 26 27 
39 38 27 28 
40 39 28 29 
41 40 29 30 
42 41 30 31 
43 42 31 32 
45 44 33 34 
46 45 34 35 
47 46 35 36 
48 47 36 37 
49 48 37 38 
50 49 38 39 
51 50 39 40 
52 51 40 41 
53 52 41 42 
54 53 42 43 
56 55 44 45 
57 56 45 46 
58 57 46 47 
59 58 47 48 
60 59 48 49 
61 60 49 50 
62 61 50 51 
63 62 51 52 
64 63 52 53 
65 64 53 54 
67 66 55 56 
68 67 56 57 
69 68 57 58 
70 69 58 59 
71 70 59 60 
72 71 60 61 
73 72 61 62 
74 73 62 63 
75 74 63 64 
76 75 64 65 
78 77 66 67 
79 78 67 68 
80 79 68 69 
81 80 69 70 
82 81 70 71 
83 82 71 72 
84 83 72 73 
85 84 73 74 
86 85 74 75 
87 86 75 76 
89 88 77 78 
90 89 78 79 
91 90 79 80 
92 91 80 81 
93 92 81 82 
94 93 82 83 
95 94 83 84 
96 95 84 85 
97 96 85 86 
98 97 86 87 
100 99 88 89 
101 100 89 90 
102 101 90 91 
103 102 91 92 
104 103 92 93 
105 104 93 94 
106 105 94 95 
107 106 95 96 
108 107 96 97 
109 108 97 98 
111 110 99 100 
112 111 100 101 
113 112 101 102 
114 113 102 103 
115 114 103 104 
116 115 104 105 
117 116 105 106 
118 117 106 107 
119 118 107 108 
120 119 108 109 
</DataArray>
<DataArray Name="offsets" type="Int32" format="ascii" >
4 8 12 16 20 24 28 32 36 40 44 48 52 56 60 64 68 72 76 80 84 88 92 96 100 104 108 112 116 120 124 128 132 136 140 144 148 152 156 160 164 168 172 176 180 184 188 192 196 200 204 208 212 216 220 224 228 232 236 240 244 248 252 256 260 264 268 272 276 280 284 288 292 296 300 304 308 312 316 320 324 328 332 336 340 344 348 352 356 360 364 368 372 376 380 384 388 392 396 400 
</DataArray>
<DataArray Name="types" type="UInt8" format="ascii" >
10 10 10 10 10 10 10 10 10 10 10 10 10 10 10 10 10 10 10 10 10 10 10 10 10 10 10 10 10 10 10 10 10 10 10 10 10 10 10 10 10 10 10 10 10 10 10 10 10 10 10 10 10 10 10 10 10 10 10 10 10 10 10 10 10 10 10 10 10 10 10 10 10 10 10 10 10 10 10 10 10 10 10 10 10 10 10 10 10 10 10 10 10 10 10 10 10 10 10 10 
</DataArray>
</Cells>
<PointData Scalars="scalars" format="ascii">
<DataArray Name="DefGrad_F" NumberOfComponents="4" type="Float32" format="ascii" >
1.000000 0.000000 0.000000 1.000000 
0.934195 0.001371 -0.000025 1.070164 
0.872713 0.002764 -0.000034 1.145261 
0.815274 0.004182 -0.000026 1.225632 
0.761614 0.005629 -0.000002 1.311645 
0.711488 0.007111 0.000037 1.403693 
0.664663 0.008634 0.000093 1.502196 
0.620921 0.010203 0.000166 1.607613 
0.580045 0.011825 0.000255 1.720484 
0.541759 0.013513 0.000361 1.841704 
0.505373 0.015303 0.000485 1.974243 
1.000000 0.000000 0.000000 1.000000 
0.934202 -0.000305 0.000065 1.070156 
0.872725 -0.000598 0.000145 1.145244 
0.815290 -0.000883 0.000240 1.225607 
0.761634 -0.001162 0.000350 1.311611 
0.711509 -0.001439 0.000475 1.403650 
0.664685 -0.001716 0.000617 1.502144 
0.620943 -0.001995 0.000775 1.607551 
0.580066 -0.002277 0.000950 1.720412 
0.541778 -0.002567 0.001144 1.841621 
0.505391 -0.002871 0.001359 1.974149 
1.000000 0.000000 0.000000 1.000000 
0.934209 0.000272 0.000170 1.070148 
0.872738 0.000555 0.000352 1.145228 
0.815307 0.000848 0.000545 1.225582 
0.761653 0.001152 0.000751 1.311578 
0.711531 0.001467 0.000971 1.403608 
0.664709 0.001793 0.001204 1.502093 
0.620967 0.002132 0.001454 1.607492 
0.580091 0.002485 0.001720 1.720345 
0.541804 0.002854 0.002005 1.841546 
0.505416 0.003246 0.002314 1.974066 
1.000000 0.000000 0.000000 1.000000 
0.934209 0.000215 0.000239 1.070148 
0.872737 0.000437 0.000486 1.145229 
0.815305 0.000667 0.000742 1.225586 
0.761650 0.000904 0.001009 1.311584 
0.711526 0.001148 0.001286 1.403618 
0.664702 0.001402 0.001577 1.502108 
0.620959 0.001665 0.001880 1.607513 
0.580082 0.001937 0.002200 1.720374 
0.541793 0.002222 0.002537 1.841585 
0.505404 0.002525 0.002899 1.974116 
1.000000 0.000000 0.000000 1.000000 
0.934205 0.000294 0.000285 1.070152 
0.872729 0.000593 0.000576 1.145239 
0.815294 0.000897 0.000872 1.225601 
0.761636 0.001207 0.001175 1.311608 
0.711510 0.001524 0.001487 1.403651 
0.664684 0.001850 0.001808 1.502151 
0.620939 0.002186 0.002142 1.607568 
0.580059 0.002533 0.002488 1.720443 
0.541769 0.002894 0.002850 1.841670 
0.505378 0.003277 0.003236 1.974221 
1.000000 0.000000 0.000000 1.000000 
0.934199 0.000308 0.000306 1.070159 
0.872718 0.000617 0.000613 1.145254 
0.815278 0.000929 0.000922 1.225626 
0.761616 0.001245 0.001236 1.311642 
0.711486 0.001566 0.001555 1.403697 
0.664657 0.001894 0.001880 1.502211 
0.620910 0.002231 0.002215 1.607644 
0.580027 0.002579 0.002559 1.720536 
0.541736 0.002939 0.002916 1.841783 
0.505344 0.003320 0.003294 1.974357 
1.000000 0.000000 0.000000 1.000000 
0.934192 0.000297 0.000302 1.070167 
0.872706 0.000592 0.000601 1.145270 
0.815261 0.000886 0.000900 1.225651 
0.761595 0.001183 0.001198 1.311678 
0.711462 0.001483 0.001499 1.403745 
0.664630 0.001787 0.001803 1.502272 
0.620880 0.002099 0.002112 1.607719 
0.579996 0.002418 0.002427 1.720627 
0.541703 0.002749 0.002751 1.841892 
0.505310 0.003099 0.003091 1.974487 
1.000000 0.000000 0.000000 1.000000 
0.934187 0.000300 0.000272 1.070173 
0.872696 0.000596 0.000537 1.145282 
0.815248 0.000888 0.000798 1.225671 
0.761579 0.001180 0.001056 1.311706 
0.711443 0.001474 0.001311 1.403780 
0.664610 0.001771 0.001566 1.502316 
0.620859 0.002073 0.001821 1.607773 
0.579974 0.002382 0.002078 1.720692 
0.541680 0.002700 0.002338 1.841968 
0.505286 0.003037 0.002609 1.974575 
1.000000 0.000000 0.000000 1.000000 
0.934183 0.000123 0.000223 1.070177 
0.872690 0.000238 0.000436 1.145290 
0.815240 0.000345 0.000641 1.225681 
0.761571 0.000448 0.000839 1.311719 
0.711435 0.000547 0.001030 1.403797 
0.664600 0.000643 0.001217 1.502335 
0.620849 0.000738 0.001399 1.607794 
0.579965 0.000833 0.001577 1.720714 
0.541671 0.000928 0.001753 1.841992 
0.505277 0.001028 0.001933 1.974600 
1.000000 0.000000 0.000000 1.000000 
0.934186 0.000509 0.000131 1.070174 
0.872696 0.001007 0.000248 1.145283 
0.815249 0.001500 0.000352 1.225669 
0.761583 0.001990 0.000445 1.311700 
0.711450 0.002482 0.000526 1.403768 
0.664619 0.002978 0.000596 1.502295 
0.620871 0.003483 0.000656 1.607740 
0.579989 0.003998 0.000705 1.720644 
0.541698 0.004529 0.000744 1.841903 
0.505307 0.005089 0.000776 1.974488 
1.000000 0.000000 0.000000 1.000000 
0.934188 -0.001311 0.000090 1.070171 
0.872701 -0.002643 0.000164 1.145275 
0.815257 -0.003998 0.000223 1.225655 
0.761594 -0.005382 0.000267 1.311678 
0.711464 -0.006799 0.000298 1.403736 
0.664635 -0.008254 0.000314 1.502251 
0.620890 -0.009755 0.000317 1.607681 
0.580010 -0.011306 0.000306 1.720568 
0.541721 -0.012919 0.000281 1.841807 
0.505332 -0.014631 0.000244 1.974368 

</DataArray>
<DataArray Name="Vel" NumberOfComponents="2" type="Float32" format="ascii" >
0.098481 -0.017365 
0.089528 -0.015786 
0.082067 -0.014471 
0.075754 -0.013358 
0.070343 -0.012403 
0.065654 -0.011577 
0.061550 -0.010853 
0.057930 -0.010215 
0.054712 -0.009647 
0.051832 -0.009139 
0.049240 -0.008682 
0.099027 -0.013917 
0.090024 -0.012652 
0.082522 -0.011598 
0.076174 -0.010706 
0.070733 -0.009941 
0.066018 -0.009278 
0.061892 -0.008698 
0.058251 -0.008187 
0.055015 -0.007732 
0.052119 -0.007325 
0.049513 -0.006959 
0.099452 -0.010453 
0.090411 -0.009503 
0.082877 -0.008711 
0.076502 -0.008041 
0.071037 -0.007466 
0.066301 -0.006969 
0.062158 -0.006533 
0.058501 -0.006149 
0.055251 -0.005807 
0.052343 -0.005501 
0.049726 -0.005226 
0.099756 -0.006976 
0.090688 -0.006341 
0.083130 -0.005813 
0.076736 -0.005366 
0.071255 -0.004983 
0.066504 -0.004650 
0.062348 -0.004360 
0.058680 -0.004103 
0.055420 -0.003875 
0.052503 -0.003671 
0.049878 -0.003488 
0.099939 -0.003490 
0.090854 -0.003173 
0.083283 -0.002908 
0.076876 -0.002685 
0.071385 -0.002493 
0.066626 -0.002327 
0.062462 -0.002181 
0.058788 -0.002053 
0.055522 -0.001939 
0.052600 -0.001837 
0.049970 -0.001745 
0.100000 0.000000 
0.090909 0.000000 
0.083333 0.000000 
0.076923 0.000000 
0.071429 0.000000 
0.066667 0.000000 
0.062500 0.000000 
0.058824 0.000000 
0.055556 0.000000 
0.052632 0.000000 
0.050000 0.000000 
0.099939 0.003490 
0.090854 0.003173 
0.083283 0.002908 
0.076876 0.002685 
0.071385 0.002493 
0.066626 0.002327 
0.062462 0.002181 
0.058788 0.002053 
0.055522 0.001939 
0.052600 0.001837 
0.049970 0.001745 
0.099756 0.006976 
0.090688 0.006341 
0.083130 0.005813 
0.076736 0.005366 
0.071255 0.004983 
0.066504 0.004650 
0.062348 0.004360 
0.058680 0.004103 
0.055420 0.003875 
0.052503 0.003671 
0.049878 0.003488 
0.099452 0.010453 
0.090411 0.009503 
0.082877 0.008711 
0.076502 0.008041 
0.071037 0.007466 
0.066301 0.006969 
0.062158 0.006533 
0.058501 0.006149 
0.055251 0.005807 
0.052343 0.005501 
0.049726 0.005226 
0.099027 0.013917 
0.090024 0.012652 
0.082522 0.011598 
0.076174 0.010706 
0.070733 0.009941 
0.066018 0.009278 
0.061892 0.008698 
0.058251 0.008187 
0.055015 0.007732 
0.052119 0.007325 
0.049513 0.006959 
0.098481 0.017365 
0.089528 0.015786 
0.082067 0.014471 
0.075754 0.013358 
0.070343 0.012403 
0.065654 0.011577 
0.061550 0.010853 
0.057930 0.010215 
0.054712 0.009647 
0.051832 0.009139 
0.049240 0.008682 

</DataArray>
</PointData>
</Piece>
</UnstructuredGrid>
</VTKFile>
