<?xml version="1.0"?>
<VTKFile type="UnstructuredGrid">
<UnstructuredGrid>
<Piece NumberOfPoints="121" NumberOfCells="100">
<Points>
<DataArray NumberOfComponents="3" type="Float32" format="ascii" >
0.984808
 -0.173648 0.
1.378731
 -0.243107 0.
1.772654
 -0.312567 0.
2.166577
 -0.382026 0.
2.560500
 -0.451485 0.
2.954423
 -0.520945 0.
3.348346
 -0.590404 0.
3.742269
 -0.659863 0.
4.136193
 -0.729322 0.
4.530116
 -0.798782 0.
4.924039
 -0.868241 0.
0.990268
 -0.139173 0.
1.386375
 -0.194842 0.
1.782483
 -0.250512 0.
2.178590
 -0.306181 0.
2.574697
 -0.361850 0.
2.970804
 -0.417519 0.
3.366911
 -0.473189 0.
3.763019
 -0.528858 0.
4.159126
 -0.584527 0.
4.555233
 -0.640196 0.
4.951340
 -0.695865 0.
0.994522
 -0.104528 0.
1.392331
 -0.146340 0.
1.790139
 -0.188151 0.
2.187948
 -0.229963 0.
2.585757
 -0.271774 0.
2.983566
 -0.313585 0.
3.381374
 -0.355397 0.
3.779183
 -0.397208 0.
4.176992
 -0.439020 0.
4.574801
 -0.480831 0.
4.972609
 -0.522642 0.
0.997564
 -0.069756 0.
1.396590
 -0.097659 0.
1.795615
 -0.125562 0.
2.194641
 -0.153464 0.
2.593667
 -0.181367 0.
2.992692
 -0.209269 0.
3.391718
 -0.237172 0.
3.790743
 -0.265075 0.
4.189769
 -0.292977 0.
4.588795
 -0.320880 0.
4.987820
 -0.348782 0.
0.999391
 -0.034899 0.
1.399147
 -0.048859 0.
1.798903
 -0.062819 0.
2.198660
 -0.076779 0.
2.598416
 -0.090739 0.
2.998172
 -0.104698 0.
3.397929
 -0.118658 0.
3.797685
 -0.132618 0.
4.197441
 -0.146578 0.
4.597198
 -0.160538 0.
4.996954
 -0.174497 0.
1.000000
 0.000000 0.
1.400000
 0.000000 0.
1.800000
 0.000000 0.
2.200000
 0.000000 0.
2.600000
 0.000000 0.
3.000000
 0.000000 0.
3.400000
 0.000000 0.
3.800000
 0.000000 0.
4.200000
 0.000000 0.
4.600000
 0.000000 0.
5.000000
 0.000000 0.
0.999391
 0.034899 0.
1.399147
 0.048859 0.
1.798903
 0.062819 0.
2.198660
 0.076779 0.
2.598416
 0.090739 0.
2.998172
 0.104698 0.
3.397929
 0.118658 0.
3.797685
 0.132618 0.
4.197441
 0.146578 0.
4.597198
 0.160538 0.
4.996954
 0.174497 0.
0.997564
 0.069756 0.
1.396590
 0.097659 0.
1.795615
 0.125562 0.
2.194641
 0.153464 0.
2.593667
 0.181367 0.
2.992692
 0.209269 0.
3.391718
 0.237172 0.
3.790743
 0.265075 0.
4.189769
 0.292977 0.
4.588795
 0.320880 0.
4.987820
 0.348782 0.
0.994522
 0.104528 0.
1.392331
 0.146340 0.
1.790139
 0.188151 0.
2.187948
 0.229963 0.
2.585757
 0.271774 0.
2.983566
 0.313585 0.
3.381374
 0.355397 0.
3.779183
 0.397208 0.
4.176992
 0.439020 0.
4.574801
 0.480831 0.
4.972609
 0.522642 0.
0.990268
 0.139173 0.
1.386375
 0.194842 0.
1.782483
 0.250512 0.
2.178590
 0.306181 0.
2.574697
 0.361850 0.
2.970804
 0.417519 0.
3.366911
 0.473189 0.
3.763019
 0.528858 0.
4.159126
 0.584527 0.
4.555233
 0.640196 0.
4.951340
 0.695865 0.
0.984808
 0.173648 0.
1.378731
 0.243107 0.
1.772654
 0.312567 0.
2.166577
 0.382026 0.
2.560500
 0.451485 0.
2.954423
 0.520945 0.
3.348346
 0.590404 0.
3.742269
 0.659863 0.
4.136193
 0.729322 0.
4.530116
 0.798782 0.
4.924039
 0.868241 0.
</DataArray>
</Points>
<Cells>
<DataArray Name="connectivity" type="Int32" format="ascii" >
12 11 0 1 
13 12 1 2 
14 13 2 3 
15 14 3 4 
16 15 4 5 
17 16 5 6 
18 17 6 7 
19 18 7 8 
20 19 8 9 
21 20 9 10 
23 22 11 12 
24 23 12 13 
25 24 13 14 
26 25 14 15 
27 26 15 16 
28 27 16 17 
29 28 17 18 
30 29 18 19 
31 30 19 20 
32 31 20 21 
34 33 22 23 
35 34 23 24 
36 35 24 25 
37 36 25 26 
38 37 26 27 
39 38 27 28 
40 39 28 29 
41 40 29 30 
42 41 30 31 
43 42 31 32 
45 44 33 34 
46 45 34 35 
47 46 35 36 
48 47 36 37 
49 48 37 38 
50 49 38 39 
51 50 39 40 
52 51 40 41 
53 52 41 42 
54 53 42 43 
56 55 44 45 
57 56 45 46 
58 57 46 47 
59 58 47 48 
60 59 48 49 
61 60 49 50 
62 61 50 51 
63 62 51 52 
64 63 52 53 
65 64 53 54 
67 66 55 56 
68 67 56 57 
69 68 57 58 
70 69 58 59 
71 70 59 60 
72 71 60 61 
73 72 61 62 
74 73 62 63 
75 74 63 64 
76 75 64 65 
78 77 66 67 
79 78 67 68 
80 79 68 69 
81 80 69 70 
82 81 70 71 
83 82 71 72 
84 83 72 73 
85 84 73 74 
86 85 74 75 
87 86 75 76 
89 88 77 78 
90 89 78 79 
91 90 79 80 
92 91 80 81 
93 92 81 82 
94 93 82 83 
95 94 83 84 
96 95 84 85 
97 96 85 86 
98 97 86 87 
100 99 88 89 
101 100 89 90 
102 101 90 91 
103 102 91 92 
104 103 92 93 
105 104 93 94 
106 105 94 95 
107 106 95 96 
108 107 96 97 
109 108 97 98 
111 110 99 100 
112 111 100 101 
113 112 101 102 
114 113 102 103 
115 114 103 104 
116 115 104 105 
117 116 105 106 
118 117 106 107 
119 118 107 108 
120 119 108 109 
</DataArray>
<DataArray Name="offsets" type="Int32" format="ascii" >
4 8 12 16 20 24 28 32 36 40 44 48 52 56 60 64 68 72 76 80 84 88 92 96 100 104 108 112 116 120 124 128 132 136 140 144 148 152 156 160 164 168 172 176 180 184 188 192 196 200 204 208 212 216 220 224 228 232 236 240 244 248 252 256 260 264 268 272 276 280 284 288 292 296 300 304 308 312 316 320 324 328 332 336 340 344 348 352 356 360 364 368 372 376 380 384 388 392 396 400 
</DataArray>
<DataArray Name="types" type="UInt8" format="ascii" >
10 10 10 10 10 10 10 10 10 10 10 10 10 10 10 10 10 10 10 10 10 10 10 10 10 10 10 10 10 10 10 10 10 10 10 10 10 10 10 10 10 10 10 10 10 10 10 10 10 10 10 10 10 10 10 10 10 10 10 10 10 10 10 10 10 10 10 10 10 10 10 10 10 10 10 10 10 10 10 10 10 10 10 10 10 10 10 10 10 10 10 10 10 10 10 10 10 10 10 10 
</DataArray>
</Cells>
<PointData Scalars="scalars" format="ascii">
<DataArray Name="DefGrad_F" NumberOfComponents="4" type="Float32" format="ascii" >
1.000000 0.000000 0.000000 1.000000 
0.853202 0.003213 -0.000037 1.169562 
0.727875 0.006571 -0.000021 1.370906 
0.621021 0.010075 0.000040 1.602685 
0.529737 0.013903 0.000152 1.879732 
0.452066 0.018006 0.000310 2.195928 
0.385492 0.022682 0.000529 2.577711 
0.329215 0.027759 0.000800 3.007928 
0.280394 0.033772 0.001156 3.535319 
0.240056 0.040278 0.001576 4.118432 
0.203564 0.048288 0.002122 4.849671 
1.000000 0.000000 0.000000 1.000000 
0.853217 -0.000690 0.000170 1.169543 
0.727898 -0.001368 0.000393 1.370862 
0.621048 -0.002050 0.000663 1.602614 
0.529763 -0.002778 0.000996 1.879627 
0.452090 -0.003548 0.001384 2.195784 
0.385511 -0.004420 0.001860 2.577517 
0.329228 -0.005363 0.002406 3.007677 
0.280399 -0.006480 0.003082 3.534995 
0.240052 -0.007690 0.003844 4.118029 
0.203548 -0.009180 0.004807 4.849162 
1.000000 0.000000 0.000000 1.000000 
0.853231 0.000647 0.000410 1.169524 
0.727921 0.001341 0.000867 1.370820 
0.621076 0.002074 0.001369 1.602545 
0.529795 0.002882 0.001943 1.879526 
0.452124 0.003752 0.002580 2.195646 
0.385545 0.004746 0.003331 2.577335 
0.329263 0.005827 0.004166 3.007447 
0.280436 0.007106 0.005178 3.534706 
0.240090 0.008491 0.006293 4.117676 
0.203588 0.010194 0.007686 4.848733 
1.000000 0.000000 0.000000 1.000000 
0.853230 0.000510 0.000565 1.169525 
0.727918 0.001052 0.001172 1.370826 
0.621071 0.001625 0.001819 1.602559 
0.529788 0.002254 0.002542 1.879552 
0.452115 0.002931 0.003331 2.195690 
0.385536 0.003704 0.004245 2.577406 
0.329253 0.004544 0.005251 3.007551 
0.280425 0.005538 0.006456 3.534862 
0.240078 0.006615 0.007775 4.117893 
0.203577 0.007939 0.009412 4.849040 
1.000000 0.000000 0.000000 1.000000 
0.853221 0.000689 0.000669 1.169536 
0.727903 0.001409 0.001370 1.370854 
0.621052 0.002159 0.002106 1.602607 
0.529766 0.002979 0.002915 1.879632 
0.452092 0.003858 0.003788 2.195809 
0.385511 0.004859 0.004790 2.577581 
0.329229 0.005946 0.005884 3.007793 
0.280401 0.007233 0.007186 3.535199 
0.240056 0.008626 0.008602 4.118341 
0.203557 0.010341 0.010351 4.849648 
1.000000 0.000000 0.000000 1.000000 
0.853208 0.000716 0.000711 1.169553 
0.727881 0.001455 0.001445 1.370895 
0.621024 0.002221 0.002205 1.602679 
0.529734 0.003054 0.003031 1.879746 
0.452057 0.003944 0.003914 2.195974 
0.385476 0.004957 0.004918 2.577818 
0.329193 0.006057 0.006008 3.008114 
0.280367 0.007360 0.007298 3.535639 
0.240023 0.008769 0.008693 4.118915 
0.203525 0.010505 0.010411 4.850413 
1.000000 0.000000 0.000000 1.000000 
0.853195 0.000686 0.000697 1.169571 
0.727858 0.001385 0.001405 1.370938 
0.620995 0.002105 0.002129 1.602752 
0.529701 0.002884 0.002906 1.879861 
0.452022 0.003715 0.003729 2.196138 
0.385440 0.004660 0.004657 2.578050 
0.329157 0.005684 0.005656 3.008425 
0.280331 0.006898 0.006832 3.536058 
0.239988 0.008211 0.008096 4.119458 
0.203492 0.009829 0.009647 4.851129 
1.000000 0.000000 0.000000 1.000000 
0.853184 0.000689 0.000623 1.169586 
0.727840 0.001384 0.001242 1.370971 
0.620973 0.002094 0.001865 1.602807 
0.529676 0.002860 0.002524 1.879944 
0.451997 0.003675 0.003211 2.196255 
0.385414 0.004599 0.003977 2.578211 
0.329132 0.005602 0.004794 3.008637 
0.280306 0.006789 0.005746 3.536339 
0.239964 0.008074 0.006762 4.119815 
0.203468 0.009657 0.008001 4.851591 
1.000000 0.000000 0.000000 1.000000 
0.853178 0.000273 0.000505 1.169594 
0.727831 0.000530 0.000992 1.370987 
0.620962 0.000781 0.001469 1.602832 
0.529665 0.001045 0.001960 1.879978 
0.451985 0.001321 0.002461 2.196298 
0.385402 0.001631 0.003007 2.578263 
0.329119 0.001967 0.003578 3.008698 
0.280294 0.002363 0.004233 3.536410 
0.239950 0.002793 0.004920 4.119896 
0.203454 0.003323 0.005749 4.851682 
1.000000 0.000000 0.000000 1.000000 
0.853184 0.001165 0.000286 1.169586 
0.727844 0.002335 0.000535 1.370963 
0.620981 0.003528 0.000756 1.602786 
0.529689 0.004812 0.000959 1.879897 
0.452013 0.006177 0.001144 2.196173 
0.385433 0.007726 0.001322 2.578073 
0.329152 0.009405 0.001487 3.008430 
0.280327 0.011394 0.001652 3.536028 
0.239985 0.013545 0.001803 4.119382 
0.203488 0.016196 0.001964 4.850976 
1.000000 0.000000 0.000000 1.000000 
0.853191 -0.003072 0.000188 1.169577 
0.727856 -0.006282 0.000330 1.370937 
0.620997 -0.009632 0.000434 1.602735 
0.529707 -0.013292 0.000505 1.879809 
0.452032 -0.017215 0.000544 2.196037 
0.385452 -0.021686 0.000551 2.577867 
0.329171 -0.026540 0.000526 3.008141 
0.280344 -0.032290 0.000463 3.535620 
0.239999 -0.038511 0.000362 4.118837 
0.203499 -0.046170 0.000210 4.850235 

</DataArray>
<DataArray Name="Vel" NumberOfComponents="2" type="Float32" format="ascii" >
0.098481 -0.017365 
0.070343 -0.012403 
0.054712 -0.009647 
0.044764 -0.007893 
0.037877 -0.006679 
0.032827 -0.005788 
0.028965 -0.005107 
0.025916 -0.004570 
0.023448 -0.004134 
0.021409 -0.003775 
0.019696 -0.003473 
0.099027 -0.013917 
0.070733 -0.009941 
0.055015 -0.007732 
0.045012 -0.006326 
0.038087 -0.005353 
0.033009 -0.004639 
0.029126 -0.004093 
0.026060 -0.003662 
0.023578 -0.003314 
0.021528 -0.003026 
0.019805 -0.002783 
0.099452 -0.010453 
0.071037 -0.007466 
0.055251 -0.005807 
0.045206 -0.004751 
0.038251 -0.004020 
0.033151 -0.003484 
0.029251 -0.003074 
0.026172 -0.002751 
0.023679 -0.002489 
0.021620 -0.002272 
0.019890 -0.002091 
0.099756 -0.006976 
0.071255 -0.004983 
0.055420 -0.003875 
0.045344 -0.003171 
0.038368 -0.002683 
0.033252 -0.002325 
0.029340 -0.002052 
0.026252 -0.001836 
0.023752 -0.001661 
0.021686 -0.001516 
0.019951 -0.001395 
0.099939 -0.003490 
0.071385 -0.002493 
0.055522 -0.001939 
0.045427 -0.001586 
0.038438 -0.001342 
0.033313 -0.001163 
0.029394 -0.001026 
0.026300 -0.000918 
0.023795 -0.000831 
0.021726 -0.000759 
0.019988 -0.000698 
0.100000 0.000000 
0.071429 0.000000 
0.055556 0.000000 
0.045455 0.000000 
0.038462 0.000000 
0.033333 0.000000 
0.029412 0.000000 
0.026316 0.000000 
0.023810 0.000000 
0.021739 0.000000 
0.020000 0.000000 
0.099939 0.003490 
0.071385 0.002493 
0.055522 0.001939 
0.045427 0.001586 
0.038438 0.001342 
0.033313 0.001163 
0.029394 0.001026 
0.026300 0.000918 
0.023795 0.000831 
0.021726 0.000759 
0.019988 0.000698 
0.099756 0.006976 
0.071255 0.004983 
0.055420 0.003875 
0.045344 0.003171 
0.038368 0.002683 
0.033252 0.002325 
0.029340 0.002052 
0.026252 0.001836 
0.023752 0.001661 
0.021686 0.001516 
0.019951 0.001395 
0.099452 0.010453 
0.071037 0.007466 
0.055251 0.005807 
0.045206 0.004751 
0.038251 0.004020 
0.033151 0.003484 
0.029251 0.003074 
0.026172 0.002751 
0.023679 0.002489 
0.021620 0.002272 
0.019890 0.002091 
0.099027 0.013917 
0.070733 0.009941 
0.055015 0.007732 
0.045012 0.006326 
0.038087 0.005353 
0.033009 0.004639 
0.029126 0.004093 
0.026060 0.003662 
0.023578 0.003314 
0.021528 0.003026 
0.019805 0.002783 
0.098481 0.017365 
0.070343 0.012403 
0.054712 0.009647 
0.044764 0.007893 
0.037877 0.006679 
0.032827 0.005788 
0.028965 0.005107 
0.025916 0.004570 
0.023448 0.004134 
0.021409 0.003775 
0.019696 0.003473 

</DataArray>
</PointData>
</Piece>
</UnstructuredGrid>
</VTKFile>
