<?xml version="1.0"?>
<VTKFile type="UnstructuredGrid">
<UnstructuredGrid>
<Piece NumberOfPoints="121" NumberOfCells="100">
<Points>
<DataArray NumberOfComponents="3" type="Float32" format="ascii" >
0.984808
 -0.173648 0.
1.378731
 -0.243107 0.
1.772654
 -0.312567 0.
2.166577
 -0.382026 0.
2.560500
 -0.451485 0.
2.954423
 -0.520945 0.
3.348346
 -0.590404 0.
3.742269
 -0.659863 0.
4.136193
 -0.729322 0.
4.530116
 -0.798782 0.
4.924039
 -0.868241 0.
0.990268
 -0.139173 0.
1.386375
 -0.194842 0.
1.782483
 -0.250512 0.
2.178590
 -0.306181 0.
2.574697
 -0.361850 0.
2.970804
 -0.417519 0.
3.366911
 -0.473189 0.
3.763019
 -0.528858 0.
4.159126
 -0.584527 0.
4.555233
 -0.640196 0.
4.951340
 -0.695865 0.
0.994522
 -0.104528 0.
1.392331
 -0.146340 0.
1.790139
 -0.188151 0.
2.187948
 -0.229963 0.
2.585757
 -0.271774 0.
2.983566
 -0.313585 0.
3.381374
 -0.355397 0.
3.779183
 -0.397208 0.
4.176992
 -0.439020 0.
4.574801
 -0.480831 0.
4.972609
 -0.522642 0.
0.997564
 -0.069756 0.
1.396590
 -0.097659 0.
1.795615
 -0.125562 0.
2.194641
 -0.153464 0.
2.593667
 -0.181367 0.
2.992692
 -0.209269 0.
3.391718
 -0.237172 0.
3.790743
 -0.265075 0.
4.189769
 -0.292977 0.
4.588795
 -0.320880 0.
4.987820
 -0.348782 0.
0.999391
 -0.034899 0.
1.399147
 -0.048859 0.
1.798903
 -0.062819 0.
2.198660
 -0.076779 0.
2.598416
 -0.090739 0.
2.998172
 -0.104698 0.
3.397929
 -0.118658 0.
3.797685
 -0.132618 0.
4.197441
 -0.146578 0.
4.597198
 -0.160538 0.
4.996954
 -0.174497 0.
1.000000
 0.000000 0.
1.400000
 0.000000 0.
1.800000
 0.000000 0.
2.200000
 0.000000 0.
2.600000
 0.000000 0.
3.000000
 0.000000 0.
3.400000
 0.000000 0.
3.800000
 0.000000 0.
4.200000
 0.000000 0.
4.600000
 0.000000 0.
5.000000
 0.000000 0.
0.999391
 0.034899 0.
1.399147
 0.048859 0.
1.798903
 0.062819 0.
2.198660
 0.076779 0.
2.598416
 0.090739 0.
2.998172
 0.104698 0.
3.397929
 0.118658 0.
3.797685
 0.132618 0.
4.197441
 0.146578 0.
4.597198
 0.160538 0.
4.996954
 0.174497 0.
0.997564
 0.069756 0.
1.396590
 0.097659 0.
1.795615
 0.125562 0.
2.194641
 0.153464 0.
2.593667
 0.181367 0.
2.992692
 0.209269 0.
3.391718
 0.237172 0.
3.790743
 0.265075 0.
4.189769
 0.292977 0.
4.588795
 0.320880 0.
4.987820
 0.348782 0.
0.994522
 0.104528 0.
1.392331
 0.146340 0.
1.790139
 0.188151 0.
2.187948
 0.229963 0.
2.585757
 0.271774 0.
2.983566
 0.313585 0.
3.381374
 0.355397 0.
3.779183
 0.397208 0.
4.176992
 0.439020 0.
4.574801
 0.480831 0.
4.972609
 0.522642 0.
0.990268
 0.139173 0.
1.386375
 0.194842 0.
1.782483
 0.250512 0.
2.178590
 0.306181 0.
2.574697
 0.361850 0.
2.970804
 0.417519 0.
3.366911
 0.473189 0.
3.763019
 0.528858 0.
4.159126
 0.584527 0.
4.555233
 0.640196 0.
4.951340
 0.695865 0.
0.984808
 0.173648 0.
1.378731
 0.243107 0.
1.772654
 0.312567 0.
2.166577
 0.382026 0.
2.560500
 0.451485 0.
2.954423
 0.520945 0.
3.348346
 0.590404 0.
3.742269
 0.659863 0.
4.136193
 0.729322 0.
4.530116
 0.798782 0.
4.924039
 0.868241 0.
</DataArray>
</Points>
<Cells>
<DataArray Name="connectivity" type="Int32" format="ascii" >
12 11 0 1 
13 12 1 2 
14 13 2 3 
15 14 3 4 
16 15 4 5 
17 16 5 6 
18 17 6 7 
19 18 7 8 
20 19 8 9 
21 20 9 10 
23 22 11 12 
24 23 12 13 
25 24 13 14 
26 25 14 15 
27 26 15 16 
28 27 16 17 
29 28 17 18 
30 29 18 19 
31 30 19 20 
32 31 20 21 
34 33 22 23 
35 34 23 24 
36 35 24 25 
37 36 25 26 
38 37 26 27 
39 38 27 28 
40 39 28 29 
41 40 29 30 
42 41 30 31 
43 42 31 32 
45 44 33 34 
46 45 34 35 
47 46 35 36 
48 47 36 37 
49 48 37 38 
50 49 38 39 
51 50 39 40 
52 51 40 41 
53 52 41 42 
54 53 42 43 
56 55 44 45 
57 56 45 46 
58 57 46 47 
59 58 47 48 
60 59 48 49 
61 60 49 50 
62 61 50 51 
63 62 51 52 
64 63 52 53 
65 64 53 54 
67 66 55 56 
68 67 56 57 
69 68 57 58 
70 69 58 59 
71 70 59 60 
72 71 60 61 
73 72 61 62 
74 73 62 63 
75 74 63 64 
76 75 64 65 
78 77 66 67 
79 78 67 68 
80 79 68 69 
81 80 69 70 
82 81 70 71 
83 82 71 72 
84 83 72 73 
85 84 73 74 
86 85 74 75 
87 86 75 76 
89 88 77 78 
90 89 78 79 
91 90 79 80 
92 91 80 81 
93 92 81 82 
94 93 82 83 
95 94 83 84 
96 95 84 85 
97 96 85 86 
98 97 86 87 
100 99 88 89 
101 100 89 90 
102 101 90 91 
103 102 91 92 
104 103 92 93 
105 104 93 94 
106 105 94 95 
107 106 95 96 
108 107 96 97 
109 108 97 98 
111 110 99 100 
112 111 100 101 
113 112 101 102 
114 113 102 103 
115 114 103 104 
116 115 104 105 
117 116 105 106 
118 117 106 107 
119 118 107 108 
120 119 108 109 
</DataArray>
<DataArray Name="offsets" type="Int32" format="ascii" >
4 8 12 16 20 24 28 32 36 40 44 48 52 56 60 64 68 72 76 80 84 88 92 96 100 104 108 112 116 120 124 128 132 136 140 144 148 152 156 160 164 168 172 176 180 184 188 192 196 200 204 208 212 216 220 224 228 232 236 240 244 248 252 256 260 264 268 272 276 280 284 288 292 296 300 304 308 312 316 320 324 328 332 336 340 344 348 352 356 360 364 368 372 376 380 384 388 392 396 400 
</DataArray>
<DataArray Name="types" type="UInt8" format="ascii" >
10 10 10 10 10 10 10 10 10 10 10 10 10 10 10 10 10 10 10 10 10 10 10 10 10 10 10 10 10 10 10 10 10 10 10 10 10 10 10 10 10 10 10 10 10 10 10 10 10 10 10 10 10 10 10 10 10 10 10 10 10 10 10 10 10 10 10 10 10 10 10 10 10 10 10 10 10 10 10 10 10 10 10 10 10 10 10 10 10 10 10 10 10 10 10 10 10 10 10 10 
</DataArray>
</Cells>
<PointData Scalars="scalars" format="ascii">
<DataArray Name="DefGrad_F" NumberOfComponents="4" type="Float32" format="ascii" >
1.000000 0.000000 0.000000 1.000000 
0.853670 0.002898 0.000394 1.171318 
0.728722 0.005900 0.000730 1.372038 
0.622052 0.009068 0.000986 1.607174 
0.530994 0.012473 0.001134 1.882601 
0.453269 0.016194 0.001139 2.205194 
0.386925 0.020318 0.000953 2.583005 
0.330294 0.024944 0.000512 3.025456 
0.281953 0.030181 -0.000265 3.543574 
0.240685 0.036156 -0.001485 4.150264 
0.205451 0.043011 -0.003284 4.860628 
1.000000 0.000000 0.000000 1.000000 
0.853711 -0.001010 0.000577 1.171361 
0.728791 -0.002019 0.001100 1.372123 
0.622138 -0.003064 0.001553 1.607296 
0.531091 -0.004177 0.001916 1.882746 
0.453372 -0.005393 0.002162 2.205338 
0.387032 -0.006746 0.002250 2.583107 
0.330407 -0.008275 0.002128 3.025454 
0.282073 -0.010023 0.001726 3.543374 
0.240817 -0.012037 0.000953 4.149730 
0.205601 -0.014373 -0.000311 4.859567 
1.000000 0.000000 0.000000 1.000000 
0.853715 0.000324 0.000822 1.171320 
0.728796 0.000674 0.001582 1.372039 
0.622143 0.001052 0.002271 1.607165 
0.531094 0.001459 0.002875 1.882568 
0.453373 0.001901 0.003369 2.205116 
0.387031 0.002387 0.003722 2.582847 
0.330403 0.002923 0.003884 3.025167 
0.282065 0.003519 0.003793 3.543080 
0.240803 0.004185 0.003361 4.149460 
0.205580 0.004933 0.002475 4.859364 
1.000000 0.000000 0.000000 1.000000 
0.853715 0.000186 0.000973 1.171325 
0.728794 0.000387 0.001879 1.372051 
0.622139 0.000603 0.002712 1.607189 
0.531088 0.000834 0.003463 1.882609 
0.453366 0.001082 0.004111 2.205180 
0.387023 0.001351 0.004628 2.582942 
0.330393 0.001642 0.004971 3.025302 
0.282056 0.001961 0.005080 3.543264 
0.240794 0.002311 0.004873 4.149702 
0.205572 0.002695 0.004244 4.859675 
1.000000 0.000000 0.000000 1.000000 
0.853705 0.000367 0.001074 1.171333 
0.728777 0.000745 0.002072 1.372073 
0.622116 0.001142 0.002994 1.607232 
0.531062 0.001563 0.003830 1.882683 
0.453337 0.002018 0.004565 2.205297 
0.386992 0.002514 0.005170 2.583117 
0.330363 0.003061 0.005606 3.025555 
0.282025 0.003670 0.005814 3.543619 
0.240765 0.004351 0.005715 4.150190 
0.205543 0.005117 0.005206 4.860332 
1.000000 0.000000 0.000000 1.000000 
0.853692 0.000395 0.001114 1.171350 
0.728754 0.000795 0.002143 1.372113 
0.622087 0.001208 0.003087 1.607305 
0.531028 0.001645 0.003940 1.882798 
0.453301 0.002114 0.004685 2.205469 
0.386955 0.002625 0.005296 2.583362 
0.330325 0.003188 0.005731 3.025893 
0.281989 0.003815 0.005933 3.544076 
0.240729 0.004518 0.005822 4.150796 
0.205510 0.005308 0.005294 4.861123 
1.000000 0.000000 0.000000 1.000000 
0.853679 0.000366 0.001098 1.171369 
0.728731 0.000728 0.002099 1.372157 
0.622057 0.001097 0.003006 1.607382 
0.530995 0.001482 0.003811 1.882917 
0.453265 0.001893 0.004496 2.205641 
0.386919 0.002338 0.005033 2.583603 
0.330289 0.002828 0.005379 3.026221 
0.281954 0.003370 0.005473 3.544511 
0.240696 0.003977 0.005233 4.151364 
0.205478 0.004657 0.004551 4.861853 
1.000000 0.000000 0.000000 1.000000 
0.853667 0.000370 0.001022 1.171384 
0.728713 0.000728 0.001936 1.372190 
0.622035 0.001088 0.002741 1.607438 
0.530970 0.001461 0.003428 1.883002 
0.453239 0.001856 0.003976 2.205762 
0.386892 0.002283 0.004354 2.583769 
0.330263 0.002751 0.004513 3.026442 
0.281928 0.003268 0.004389 3.544802 
0.240672 0.003846 0.003893 4.151738 
0.205456 0.004494 0.002908 4.862328 
1.000000 0.000000 0.000000 1.000000 
0.853664 -0.000047 0.000901 1.171398 
0.728709 -0.000123 0.001682 1.372220 
0.622031 -0.000223 0.002339 1.607483 
0.530966 -0.000347 0.002860 1.883062 
0.453236 -0.000496 0.003219 2.205836 
0.386891 -0.000675 0.003381 2.583854 
0.330263 -0.000888 0.003292 3.026533 
0.281929 -0.001143 0.002880 3.544889 
0.240675 -0.001448 0.002050 4.151809 
0.205461 -0.001816 0.000676 4.862363 
1.000000 0.000000 0.000000 1.000000 
0.853664 0.000842 0.000687 1.171375 
0.728711 0.001671 0.001236 1.372167 
0.622035 0.002514 0.001639 1.607392 
0.530974 0.003398 0.001874 1.882925 
0.453246 0.004348 0.001911 2.205645 
0.386901 0.005387 0.001703 2.583599 
0.330273 0.006541 0.001185 3.026206 
0.281938 0.007838 0.000275 3.544483 
0.240681 0.009306 -0.001141 4.151317 
0.205462 0.010978 -0.003203 4.861783 
1.000000 0.000000 0.000000 1.000000 
0.853702 -0.003390 0.000563 1.171434 
0.728777 -0.006906 0.000986 1.372279 
0.622122 -0.010624 0.001259 1.607546 
0.531075 -0.014632 0.001360 1.883101 
0.453358 -0.019026 0.001257 2.205808 
0.387024 -0.023916 0.000901 2.583697 
0.330406 -0.029423 0.000230 3.026159 
0.282085 -0.035684 -0.000842 3.544176 
0.240846 -0.042858 -0.002424 4.150587 
0.205654 -0.051125 -0.004657 4.860400 

</DataArray>
<DataArray Name="Vel" NumberOfComponents="2" type="Float32" format="ascii" >
0.098481 -0.017365 
0.070343 -0.012403 
0.054712 -0.009647 
0.044764 -0.007893 
0.037877 -0.006679 
0.032827 -0.005788 
0.028965 -0.005107 
0.025916 -0.004570 
0.023448 -0.004134 
0.021409 -0.003775 
0.019696 -0.003473 
0.099027 -0.013917 
0.070733 -0.009941 
0.055015 -0.007732 
0.045012 -0.006326 
0.038087 -0.005353 
0.033009 -0.004639 
0.029126 -0.004093 
0.026060 -0.003662 
0.023578 -0.003314 
0.021528 -0.003026 
0.019805 -0.002783 
0.099452 -0.010453 
0.071037 -0.007466 
0.055251 -0.005807 
0.045206 -0.004751 
0.038251 -0.004020 
0.033151 -0.003484 
0.029251 -0.003074 
0.026172 -0.002751 
0.023679 -0.002489 
0.021620 -0.002272 
0.019890 -0.002091 
0.099756 -0.006976 
0.071255 -0.004983 
0.055420 -0.003875 
0.045344 -0.003171 
0.038368 -0.002683 
0.033252 -0.002325 
0.029340 -0.002052 
0.026252 -0.001836 
0.023752 -0.001661 
0.021686 -0.001516 
0.019951 -0.001395 
0.099939 -0.003490 
0.071385 -0.002493 
0.055522 -0.001939 
0.045427 -0.001586 
0.038438 -0.001342 
0.033313 -0.001163 
0.029394 -0.001026 
0.026300 -0.000918 
0.023795 -0.000831 
0.021726 -0.000759 
0.019988 -0.000698 
0.100000 0.000000 
0.071429 0.000000 
0.055556 0.000000 
0.045455 0.000000 
0.038462 0.000000 
0.033333 0.000000 
0.029412 0.000000 
0.026316 0.000000 
0.023810 0.000000 
0.021739 0.000000 
0.020000 0.000000 
0.099939 0.003490 
0.071385 0.002493 
0.055522 0.001939 
0.045427 0.001586 
0.038438 0.001342 
0.033313 0.001163 
0.029394 0.001026 
0.026300 0.000918 
0.023795 0.000831 
0.021726 0.000759 
0.019988 0.000698 
0.099756 0.006976 
0.071255 0.004983 
0.055420 0.003875 
0.045344 0.003171 
0.038368 0.002683 
0.033252 0.002325 
0.029340 0.002052 
0.026252 0.001836 
0.023752 0.001661 
0.021686 0.001516 
0.019951 0.001395 
0.099452 0.010453 
0.071037 0.007466 
0.055251 0.005807 
0.045206 0.004751 
0.038251 0.004020 
0.033151 0.003484 
0.029251 0.003074 
0.026172 0.002751 
0.023679 0.002489 
0.021620 0.002272 
0.019890 0.002091 
0.099027 0.013917 
0.070733 0.009941 
0.055015 0.007732 
0.045012 0.006326 
0.038087 0.005353 
0.033009 0.004639 
0.029126 0.004093 
0.026060 0.003662 
0.023578 0.003314 
0.021528 0.003026 
0.019805 0.002783 
0.098481 0.017365 
0.070343 0.012403 
0.054712 0.009647 
0.044764 0.007893 
0.037877 0.006679 
0.032827 0.005788 
0.028965 0.005107 
0.025916 0.004570 
0.023448 0.004134 
0.021409 0.003775 
0.019696 0.003473 

</DataArray>
</PointData>
</Piece>
</UnstructuredGrid>
</VTKFile>
