<?xml version="1.0"?>
<VTKFile type="UnstructuredGrid">
<UnstructuredGrid>
<Piece NumberOfPoints="121" NumberOfCells="100">
<Points>
<DataArray NumberOfComponents="3" type="Float32" format="ascii" >
0.984808
 -0.173648 0.
1.378731
 -0.243107 0.
1.772654
 -0.312567 0.
2.166577
 -0.382026 0.
2.560500
 -0.451485 0.
2.954423
 -0.520945 0.
3.348346
 -0.590404 0.
3.742269
 -0.659863 0.
4.136193
 -0.729322 0.
4.530116
 -0.798782 0.
4.924039
 -0.868241 0.
0.990268
 -0.139173 0.
1.386375
 -0.194842 0.
1.782483
 -0.250512 0.
2.178590
 -0.306181 0.
2.574697
 -0.361850 0.
2.970804
 -0.417519 0.
3.366911
 -0.473189 0.
3.763019
 -0.528858 0.
4.159126
 -0.584527 0.
4.555233
 -0.640196 0.
4.951340
 -0.695865 0.
0.994522
 -0.104528 0.
1.392331
 -0.146340 0.
1.790139
 -0.188151 0.
2.187948
 -0.229963 0.
2.585757
 -0.271774 0.
2.983566
 -0.313585 0.
3.381374
 -0.355397 0.
3.779183
 -0.397208 0.
4.176992
 -0.439020 0.
4.574801
 -0.480831 0.
4.972609
 -0.522642 0.
0.997564
 -0.069756 0.
1.396590
 -0.097659 0.
1.795615
 -0.125562 0.
2.194641
 -0.153464 0.
2.593667
 -0.181367 0.
2.992692
 -0.209269 0.
3.391718
 -0.237172 0.
3.790743
 -0.265075 0.
4.189769
 -0.292977 0.
4.588795
 -0.320880 0.
4.987820
 -0.348782 0.
0.999391
 -0.034899 0.
1.399147
 -0.048859 0.
1.798903
 -0.062819 0.
2.198660
 -0.076779 0.
2.598416
 -0.090739 0.
2.998172
 -0.104698 0.
3.397929
 -0.118658 0.
3.797685
 -0.132618 0.
4.197441
 -0.146578 0.
4.597198
 -0.160538 0.
4.996954
 -0.174497 0.
1.000000
 0.000000 0.
1.400000
 0.000000 0.
1.800000
 0.000000 0.
2.200000
 0.000000 0.
2.600000
 0.000000 0.
3.000000
 0.000000 0.
3.400000
 0.000000 0.
3.800000
 0.000000 0.
4.200000
 0.000000 0.
4.600000
 0.000000 0.
5.000000
 0.000000 0.
0.999391
 0.034899 0.
1.399147
 0.048859 0.
1.798903
 0.062819 0.
2.198660
 0.076779 0.
2.598416
 0.090739 0.
2.998172
 0.104698 0.
3.397929
 0.118658 0.
3.797685
 0.132618 0.
4.197441
 0.146578 0.
4.597198
 0.160538 0.
4.996954
 0.174497 0.
0.997564
 0.069756 0.
1.396590
 0.097659 0.
1.795615
 0.125562 0.
2.194641
 0.153464 0.
2.593667
 0.181367 0.
2.992692
 0.209269 0.
3.391718
 0.237172 0.
3.790743
 0.265075 0.
4.189769
 0.292977 0.
4.588795
 0.320880 0.
4.987820
 0.348782 0.
0.994522
 0.104528 0.
1.392331
 0.146340 0.
1.790139
 0.188151 0.
2.187948
 0.229963 0.
2.585757
 0.271774 0.
2.983566
 0.313585 0.
3.381374
 0.355397 0.
3.779183
 0.397208 0.
4.176992
 0.439020 0.
4.574801
 0.480831 0.
4.972609
 0.522642 0.
0.990268
 0.139173 0.
1.386375
 0.194842 0.
1.782483
 0.250512 0.
2.178590
 0.306181 0.
2.574697
 0.361850 0.
2.970804
 0.417519 0.
3.366911
 0.473189 0.
3.763019
 0.528858 0.
4.159126
 0.584527 0.
4.555233
 0.640196 0.
4.951340
 0.695865 0.
0.984808
 0.173648 0.
1.378731
 0.243107 0.
1.772654
 0.312567 0.
2.166577
 0.382026 0.
2.560500
 0.451485 0.
2.954423
 0.520945 0.
3.348346
 0.590404 0.
3.742269
 0.659863 0.
4.136193
 0.729322 0.
4.530116
 0.798782 0.
4.924039
 0.868241 0.
</DataArray>
</Points>
<Cells>
<DataArray Name="connectivity" type="Int32" format="ascii" >
12 11 0 1 
13 12 1 2 
14 13 2 3 
15 14 3 4 
16 15 4 5 
17 16 5 6 
18 17 6 7 
19 18 7 8 
20 19 8 9 
21 20 9 10 
23 22 11 12 
24 23 12 13 
25 24 13 14 
26 25 14 15 
27 26 15 16 
28 27 16 17 
29 28 17 18 
30 29 18 19 
31 30 19 20 
32 31 20 21 
34 33 22 23 
35 34 23 24 
36 35 24 25 
37 36 25 26 
38 37 26 27 
39 38 27 28 
40 39 28 29 
41 40 29 30 
42 41 30 31 
43 42 31 32 
45 44 33 34 
46 45 34 35 
47 46 35 36 
48 47 36 37 
49 48 37 38 
50 49 38 39 
51 50 39 40 
52 51 40 41 
53 52 41 42 
54 53 42 43 
56 55 44 45 
57 56 45 46 
58 57 46 47 
59 58 47 48 
60 59 48 49 
61 60 49 50 
62 61 50 51 
63 62 51 52 
64 63 52 53 
65 64 53 54 
67 66 55 56 
68 67 56 57 
69 68 57 58 
70 69 58 59 
71 70 59 60 
72 71 60 61 
73 72 61 62 
74 73 62 63 
75 74 63 64 
76 75 64 65 
78 77 66 67 
79 78 67 68 
80 79 68 69 
81 80 69 70 
82 81 70 71 
83 82 71 72 
84 83 72 73 
85 84 73 74 
86 85 74 75 
87 86 75 76 
89 88 77 78 
90 89 78 79 
91 90 79 80 
92 91 80 81 
93 92 81 82 
94 93 82 83 
95 94 83 84 
96 95 84 85 
97 96 85 86 
98 97 86 87 
100 99 88 89 
101 100 89 90 
102 101 90 91 
103 102 91 92 
104 103 92 93 
105 104 93 94 
106 105 94 95 
107 106 95 96 
108 107 96 97 
109 108 97 98 
111 110 99 100 
112 111 100 101 
113 112 101 102 
114 113 102 103 
115 114 103 104 
116 115 104 105 
117 116 105 106 
118 117 106 107 
119 118 107 108 
120 119 108 109 
</DataArray>
<DataArray Name="offsets" type="Int32" format="ascii" >
4 8 12 16 20 24 28 32 36 40 44 48 52 56 60 64 68 72 76 80 84 88 92 96 100 104 108 112 116 120 124 128 132 136 140 144 148 152 156 160 164 168 172 176 180 184 188 192 196 200 204 208 212 216 220 224 228 232 236 240 244 248 252 256 260 264 268 272 276 280 284 288 292 296 300 304 308 312 316 320 324 328 332 336 340 344 348 352 356 360 364 368 372 376 380 384 388 392 396 400 
</DataArray>
<DataArray Name="types" type="UInt8" format="ascii" >
10 10 10 10 10 10 10 10 10 10 10 10 10 10 10 10 10 10 10 10 10 10 10 10 10 10 10 10 10 10 10 10 10 10 10 10 10 10 10 10 10 10 10 10 10 10 10 10 10 10 10 10 10 10 10 10 10 10 10 10 10 10 10 10 10 10 10 10 10 10 10 10 10 10 10 10 10 10 10 10 10 10 10 10 10 10 10 10 10 10 10 10 10 10 10 10 10 10 10 10 
</DataArray>
</Cells>
<PointData Scalars="scalars" format="ascii">
<DataArray Name="DefGrad_F" NumberOfComponents="4" type="Float32" format="ascii" >
1.000000 0.000000 0.000000 1.000000 
0.853670 0.003203 -0.000002 1.171415 
0.728723 0.006524 0.000046 1.372268 
0.622054 0.010034 0.000142 1.607590 
0.531000 0.013813 0.000287 1.883252 
0.453281 0.017952 0.000489 2.206193 
0.386946 0.022549 0.000735 2.584357 
0.330335 0.027724 0.001096 3.027537 
0.281999 0.033582 0.001383 3.545830 
0.240811 0.040329 0.002245 4.154809 
0.205452 0.047965 0.001681 4.862350 
1.000000 0.000000 0.000000 1.000000 
0.853687 -0.000717 0.000204 1.171400 
0.728749 -0.001419 0.000457 1.372235 
0.622084 -0.002137 0.000762 1.607536 
0.531031 -0.002892 0.001124 1.883174 
0.453310 -0.003709 0.001559 2.206087 
0.386969 -0.004611 0.002058 2.584217 
0.330352 -0.005620 0.002697 3.027363 
0.282009 -0.006772 0.003303 3.545594 
0.240803 -0.008069 0.004498 4.154573 
0.205452 -0.009622 0.004396 4.861890 
1.000000 0.000000 0.000000 1.000000 
0.853700 0.000625 0.000444 1.171378 
0.728770 0.001289 0.000930 1.372188 
0.622111 0.002001 0.001469 1.607460 
0.531060 0.002774 0.002073 1.883062 
0.453341 0.003625 0.002762 2.205934 
0.387002 0.004572 0.003534 2.584015 
0.330385 0.005641 0.004472 3.027103 
0.282043 0.006845 0.005407 3.545272 
0.240842 0.008252 0.006979 4.154160 
0.205487 0.009788 0.007275 4.861440 
1.000000 0.000000 0.000000 1.000000 
0.853699 0.000486 0.000599 1.171380 
0.728767 0.001000 0.001234 1.372195 
0.622106 0.001549 0.001919 1.607475 
0.531054 0.002144 0.002671 1.883090 
0.453333 0.002799 0.003513 2.205980 
0.386992 0.003527 0.004448 2.584088 
0.330375 0.004349 0.005560 3.027213 
0.282032 0.005273 0.006687 3.545433 
0.240830 0.006359 0.008469 4.154391 
0.205476 0.007528 0.009009 4.861753 
1.000000 0.000000 0.000000 1.000000 
0.853691 0.000666 0.000701 1.171391 
0.728753 0.001356 0.001430 1.372222 
0.622087 0.002085 0.002205 1.607523 
0.531032 0.002870 0.003043 1.883169 
0.453309 0.003730 0.003970 2.206100 
0.386968 0.004685 0.004992 2.584261 
0.330351 0.005761 0.006195 3.027457 
0.282009 0.006973 0.007417 3.545769 
0.240808 0.008389 0.009299 4.154844 
0.205455 0.009937 0.009953 4.862363 
1.000000 0.000000 0.000000 1.000000 
0.853678 0.000693 0.000743 1.171409 
0.728731 0.001402 0.001504 1.372263 
0.622059 0.002147 0.002302 1.607596 
0.531000 0.002945 0.003157 1.883283 
0.453275 0.003817 0.004094 2.206268 
0.386933 0.004784 0.005119 2.584499 
0.330315 0.005874 0.006317 3.027784 
0.281974 0.007101 0.007528 3.546211 
0.240774 0.008534 0.009387 4.155431 
0.205423 0.010103 0.010016 4.863135 
1.000000 0.000000 0.000000 1.000000 
0.853664 0.000662 0.000728 1.171427 
0.728708 0.001332 0.001462 1.372306 
0.622030 0.002030 0.002224 1.607670 
0.530967 0.002775 0.003030 1.883398 
0.453240 0.003587 0.003906 2.206435 
0.386897 0.004486 0.004855 2.584732 
0.330279 0.005500 0.005961 3.028101 
0.281939 0.006639 0.007060 3.546633 
0.240740 0.007972 0.008782 4.155986 
0.205390 0.009427 0.009253 4.863857 
1.000000 0.000000 0.000000 1.000000 
0.853653 0.000665 0.000652 1.171442 
0.728691 0.001331 0.001298 1.372339 
0.622008 0.002019 0.001958 1.607726 
0.530942 0.002751 0.002645 1.883481 
0.453214 0.003547 0.003384 2.206553 
0.386871 0.004426 0.004173 2.584893 
0.330254 0.005417 0.005092 3.028316 
0.281913 0.006531 0.005971 3.546915 
0.240715 0.007834 0.007436 4.156350 
0.205366 0.009255 0.007605 4.864321 
1.000000 0.000000 0.000000 1.000000 
0.853648 0.000246 0.000532 1.171451 
0.728682 0.000475 0.001046 1.372356 
0.621998 0.000701 0.001558 1.607752 
0.530932 0.000933 0.002079 1.883517 
0.453203 0.001181 0.002628 2.206599 
0.386860 0.001452 0.003199 2.584951 
0.330242 0.001757 0.003865 3.028386 
0.281901 0.002094 0.004453 3.546995 
0.240702 0.002506 0.005574 4.156450 
0.205354 0.002910 0.005350 4.864417 
1.000000 0.000000 0.000000 1.000000 
0.853654 0.001141 0.000312 1.171441 
0.728694 0.002281 0.000589 1.372329 
0.622016 0.003456 0.000842 1.607700 
0.530955 0.004704 0.001077 1.883429 
0.453230 0.006060 0.001305 2.206461 
0.386889 0.007558 0.001512 2.584746 
0.330274 0.009243 0.001763 3.028091 
0.281934 0.011144 0.001869 3.546588 
0.240736 0.013352 0.002439 4.155883 
0.205384 0.015805 0.001551 4.863691 
1.000000 0.000000 0.000000 1.000000 
0.853663 -0.003113 0.000211 1.171436 
0.728710 -0.006340 0.000379 1.372313 
0.622037 -0.009751 0.000513 1.607667 
0.530979 -0.013423 0.000614 1.883370 
0.453255 -0.017444 0.000691 2.206365 
0.386914 -0.021913 0.000728 2.584598 
0.330296 -0.026936 0.000779 3.027883 
0.281956 -0.032641 0.000665 3.546275 
0.240749 -0.039165 0.000948 4.155514 
0.205413 -0.046678 -0.000182 4.863000 

</DataArray>
<DataArray Name="Vel" NumberOfComponents="2" type="Float32" format="ascii" >
0.098481 -0.017365 
0.070343 -0.012403 
0.054712 -0.009647 
0.044764 -0.007893 
0.037877 -0.006679 
0.032827 -0.005788 
0.028965 -0.005107 
0.025916 -0.004570 
0.023448 -0.004134 
0.021409 -0.003775 
0.019696 -0.003473 
0.099027 -0.013917 
0.070733 -0.009941 
0.055015 -0.007732 
0.045012 -0.006326 
0.038087 -0.005353 
0.033009 -0.004639 
0.029126 -0.004093 
0.026060 -0.003662 
0.023578 -0.003314 
0.021528 -0.003026 
0.019805 -0.002783 
0.099452 -0.010453 
0.071037 -0.007466 
0.055251 -0.005807 
0.045206 -0.004751 
0.038251 -0.004020 
0.033151 -0.003484 
0.029251 -0.003074 
0.026172 -0.002751 
0.023679 -0.002489 
0.021620 -0.002272 
0.019890 -0.002091 
0.099756 -0.006976 
0.071255 -0.004983 
0.055420 -0.003875 
0.045344 -0.003171 
0.038368 -0.002683 
0.033252 -0.002325 
0.029340 -0.002052 
0.026252 -0.001836 
0.023752 -0.001661 
0.021686 -0.001516 
0.019951 -0.001395 
0.099939 -0.003490 
0.071385 -0.002493 
0.055522 -0.001939 
0.045427 -0.001586 
0.038438 -0.001342 
0.033313 -0.001163 
0.029394 -0.001026 
0.026300 -0.000918 
0.023795 -0.000831 
0.021726 -0.000759 
0.019988 -0.000698 
0.100000 0.000000 
0.071429 0.000000 
0.055556 0.000000 
0.045455 0.000000 
0.038462 0.000000 
0.033333 0.000000 
0.029412 0.000000 
0.026316 0.000000 
0.023810 0.000000 
0.021739 0.000000 
0.020000 0.000000 
0.099939 0.003490 
0.071385 0.002493 
0.055522 0.001939 
0.045427 0.001586 
0.038438 0.001342 
0.033313 0.001163 
0.029394 0.001026 
0.026300 0.000918 
0.023795 0.000831 
0.021726 0.000759 
0.019988 0.000698 
0.099756 0.006976 
0.071255 0.004983 
0.055420 0.003875 
0.045344 0.003171 
0.038368 0.002683 
0.033252 0.002325 
0.029340 0.002052 
0.026252 0.001836 
0.023752 0.001661 
0.021686 0.001516 
0.019951 0.001395 
0.099452 0.010453 
0.071037 0.007466 
0.055251 0.005807 
0.045206 0.004751 
0.038251 0.004020 
0.033151 0.003484 
0.029251 0.003074 
0.026172 0.002751 
0.023679 0.002489 
0.021620 0.002272 
0.019890 0.002091 
0.099027 0.013917 
0.070733 0.009941 
0.055015 0.007732 
0.045012 0.006326 
0.038087 0.005353 
0.033009 0.004639 
0.029126 0.004093 
0.026060 0.003662 
0.023578 0.003314 
0.021528 0.003026 
0.019805 0.002783 
0.098481 0.017365 
0.070343 0.012403 
0.054712 0.009647 
0.044764 0.007893 
0.037877 0.006679 
0.032827 0.005788 
0.028965 0.005107 
0.025916 0.004570 
0.023448 0.004134 
0.021409 0.003775 
0.019696 0.003473 

</DataArray>
</PointData>
</Piece>
</UnstructuredGrid>
</VTKFile>
