<?xml version="1.0"?>
<VTKFile type="UnstructuredGrid">
<UnstructuredGrid>
<Piece NumberOfPoints="25" NumberOfCells="16">
<Points>
<DataArray NumberOfComponents="3" type="Float32" format="ascii" >
0.984808
 -0.173648 0.
1.969616
 -0.347296 0.
2.954423
 -0.520945 0.
3.939231
 -0.694593 0.
4.924039
 -0.868241 0.
0.996195
 -0.087156 0.
1.992389
 -0.174311 0.
2.988584
 -0.261467 0.
3.984779
 -0.348623 0.
4.980973
 -0.435779 0.
1.000000
 0.000000 0.
2.000000
 0.000000 0.
3.000000
 0.000000 0.
4.000000
 0.000000 0.
5.000000
 0.000000 0.
0.996195
 0.087156 0.
1.992389
 0.174311 0.
2.988584
 0.261467 0.
3.984779
 0.348623 0.
4.980973
 0.435779 0.
0.984808
 0.173648 0.
1.969616
 0.347296 0.
2.954423
 0.520945 0.
3.939231
 0.694593 0.
4.924039
 0.868241 0.
</DataArray>
</Points>
<Cells>
<DataArray Name="connectivity" type="Int32" format="ascii" >
6 5 0 1 
7 6 1 2 
8 7 2 3 
9 8 3 4 
11 10 5 6 
12 11 6 7 
13 12 7 8 
14 13 8 9 
16 15 10 11 
17 16 11 12 
18 17 12 13 
19 18 13 14 
21 20 15 16 
22 21 16 17 
23 22 17 18 
24 23 18 19 
</DataArray>
<DataArray Name="offsets" type="Int32" format="ascii" >
4 8 12 16 20 24 28 32 36 40 44 48 52 56 60 64 
</DataArray>
<DataArray Name="types" type="UInt8" format="ascii" >
10 10 10 10 10 10 10 10 10 10 10 10 10 10 10 10 
</DataArray>
</Cells>
<PointData Scalars="scalars" format="ascii">
<DataArray Name="DefGrad_F" NumberOfComponents="4" type="Float32" format="ascii" >
1.000000 0.000000 0.000000 1.000000 
0.670612 0.022565 0.000231 1.552829 
0.448608 0.046707 0.001017 2.265086 
0.301572 0.080576 0.002689 3.425358 
0.201421 0.125727 0.005440 5.067380 
1.000000 0.000000 0.000000 1.000000 
0.670622 -0.004160 0.001274 1.552706 
0.448582 -0.008416 0.002958 2.264976 
0.301471 -0.014317 0.005669 3.425258 
0.201218 -0.022176 0.009605 5.067551 
1.000000 0.000000 0.000000 1.000000 
0.670595 0.002012 0.001994 1.552619 
0.448545 0.004140 0.004097 2.265124 
0.301437 0.007115 0.007031 3.425677 
0.201209 0.011082 0.010932 5.068847 
1.000000 0.000000 0.000000 1.000000 
0.670566 0.007005 0.001212 1.552706 
0.448522 0.014275 0.002160 2.265309 
0.301426 0.024393 0.003131 3.426003 
0.201210 0.037876 0.004101 5.069345 
1.000000 0.000000 0.000000 1.000000 
0.670562 -0.021749 0.000761 1.552788 
0.448513 -0.045024 0.001044 2.265187 
0.301407 -0.077676 0.000887 3.425601 
0.201167 -0.121212 0.000173 5.068148 

</DataArray>
<DataArray Name="Vel" NumberOfComponents="2" type="Float32" format="ascii" >
0.098481 -0.017365 
0.049240 -0.008682 
0.032827 -0.005788 
0.024620 -0.004341 
0.019696 -0.003473 
0.099619 -0.008716 
0.049810 -0.004358 
0.033206 -0.002905 
0.024905 -0.002179 
0.019924 -0.001743 
0.100000 0.000000 
0.050000 0.000000 
0.033333 0.000000 
0.025000 0.000000 
0.020000 0.000000 
0.099619 0.008716 
0.049810 0.004358 
0.033206 0.002905 
0.024905 0.002179 
0.019924 0.001743 
0.098481 0.017365 
0.049240 0.008682 
0.032827 0.005788 
0.024620 0.004341 
0.019696 0.003473 

</DataArray>
</PointData>
</Piece>
</UnstructuredGrid>
</VTKFile>
