<?xml version="1.0"?>
<VTKFile type="UnstructuredGrid">
<UnstructuredGrid>
<Piece NumberOfPoints="189" NumberOfCells="160">
<Points>
<DataArray NumberOfComponents="3" type="Float32" format="ascii" >
0.984808
 -0.173648 0.
1.181769
 -0.208378 0.
1.378731
 -0.243107 0.
1.575692
 -0.277837 0.
1.772654
 -0.312567 0.
1.969616
 -0.347296 0.
2.166577
 -0.382026 0.
2.363539
 -0.416756 0.
2.560500
 -0.451485 0.
2.757462
 -0.486215 0.
2.954423
 -0.520945 0.
3.151385
 -0.555674 0.
3.348346
 -0.590404 0.
3.545308
 -0.625133 0.
3.742269
 -0.659863 0.
3.939231
 -0.694593 0.
4.136193
 -0.729322 0.
4.333154
 -0.764052 0.
4.530116
 -0.798782 0.
4.727077
 -0.833511 0.
4.924039
 -0.868241 0.
0.991445
 -0.130526 0.
1.189734
 -0.156631 0.
1.388023
 -0.182737 0.
1.586312
 -0.208842 0.
1.784601
 -0.234947 0.
1.982890
 -0.261052 0.
2.181179
 -0.287158 0.
2.379468
 -0.313263 0.
2.577757
 -0.339368 0.
2.776046
 -0.365473 0.
2.974335
 -0.391579 0.
3.172624
 -0.417684 0.
3.370913
 -0.443789 0.
3.569202
 -0.469894 0.
3.767490
 -0.496000 0.
3.965779
 -0.522105 0.
4.164068
 -0.548210 0.
4.362357
 -0.574315 0.
4.560646
 -0.600420 0.
4.758935
 -0.626526 0.
4.957224
 -0.652631 0.
0.996195
 -0.087156 0.
1.195434
 -0.104587 0.
1.394673
 -0.122018 0.
1.593912
 -0.139449 0.
1.793150
 -0.156880 0.
1.992389
 -0.174311 0.
2.191628
 -0.191743 0.
2.390867
 -0.209174 0.
2.590106
 -0.226605 0.
2.789345
 -0.244036 0.
2.988584
 -0.261467 0.
3.187823
 -0.278898 0.
3.387062
 -0.296330 0.
3.586301
 -0.313761 0.
3.785540
 -0.331192 0.
3.984779
 -0.348623 0.
4.184018
 -0.366054 0.
4.383257
 -0.383485 0.
4.582496
 -0.400916 0.
4.781735
 -0.418348 0.
4.980973
 -0.435779 0.
0.999048
 -0.043619 0.
1.198858
 -0.052343 0.
1.398668
 -0.061067 0.
1.598477
 -0.069791 0.
1.798287
 -0.078515 0.
1.998096
 -0.087239 0.
2.197906
 -0.095963 0.
2.397716
 -0.104687 0.
2.597525
 -0.113410 0.
2.797335
 -0.122134 0.
2.997145
 -0.130858 0.
3.196954
 -0.139582 0.
3.396764
 -0.148306 0.
3.596574
 -0.157030 0.
3.796383
 -0.165754 0.
3.996193
 -0.174478 0.
4.196003
 -0.183201 0.
4.395812
 -0.191925 0.
4.595622
 -0.200649 0.
4.795431
 -0.209373 0.
4.995241
 -0.218097 0.
1.000000
 0.000000 0.
1.200000
 0.000000 0.
1.400000
 0.000000 0.
1.600000
 0.000000 0.
1.800000
 0.000000 0.
2.000000
 0.000000 0.
2.200000
 0.000000 0.
2.400000
 0.000000 0.
2.600000
 0.000000 0.
2.800000
 0.000000 0.
3.000000
 0.000000 0.
3.200000
 0.000000 0.
3.400000
 0.000000 0.
3.600000
 0.000000 0.
3.800000
 0.000000 0.
4.000000
 0.000000 0.
4.200000
 0.000000 0.
4.400000
 0.000000 0.
4.600000
 0.000000 0.
4.800000
 0.000000 0.
5.000000
 0.000000 0.
0.999048
 0.043619 0.
1.198858
 0.052343 0.
1.398668
 0.061067 0.
1.598477
 0.069791 0.
1.798287
 0.078515 0.
1.998096
 0.087239 0.
2.197906
 0.095963 0.
2.397716
 0.104687 0.
2.597525
 0.113410 0.
2.797335
 0.122134 0.
2.997145
 0.130858 0.
3.196954
 0.139582 0.
3.396764
 0.148306 0.
3.596574
 0.157030 0.
3.796383
 0.165754 0.
3.996193
 0.174478 0.
4.196003
 0.183201 0.
4.395812
 0.191925 0.
4.595622
 0.200649 0.
4.795431
 0.209373 0.
4.995241
 0.218097 0.
0.996195
 0.087156 0.
1.195434
 0.104587 0.
1.394673
 0.122018 0.
1.593912
 0.139449 0.
1.793150
 0.156880 0.
1.992389
 0.174311 0.
2.191628
 0.191743 0.
2.390867
 0.209174 0.
2.590106
 0.226605 0.
2.789345
 0.244036 0.
2.988584
 0.261467 0.
3.187823
 0.278898 0.
3.387062
 0.296330 0.
3.586301
 0.313761 0.
3.785540
 0.331192 0.
3.984779
 0.348623 0.
4.184018
 0.366054 0.
4.383257
 0.383485 0.
4.582496
 0.400916 0.
4.781735
 0.418348 0.
4.980973
 0.435779 0.
0.991445
 0.130526 0.
1.189734
 0.156631 0.
1.388023
 0.182737 0.
1.586312
 0.208842 0.
1.784601
 0.234947 0.
1.982890
 0.261052 0.
2.181179
 0.287158 0.
2.379468
 0.313263 0.
2.577757
 0.339368 0.
2.776046
 0.365473 0.
2.974335
 0.391579 0.
3.172624
 0.417684 0.
3.370913
 0.443789 0.
3.569202
 0.469894 0.
3.767490
 0.496000 0.
3.965779
 0.522105 0.
4.164068
 0.548210 0.
4.362357
 0.574315 0.
4.560646
 0.600420 0.
4.758935
 0.626526 0.
4.957224
 0.652631 0.
0.984808
 0.173648 0.
1.181769
 0.208378 0.
1.378731
 0.243107 0.
1.575692
 0.277837 0.
1.772654
 0.312567 0.
1.969616
 0.347296 0.
2.166577
 0.382026 0.
2.363539
 0.416756 0.
2.560500
 0.451485 0.
2.757462
 0.486215 0.
2.954423
 0.520945 0.
3.151385
 0.555674 0.
3.348346
 0.590404 0.
3.545308
 0.625133 0.
3.742269
 0.659863 0.
3.939231
 0.694593 0.
4.136193
 0.729322 0.
4.333154
 0.764052 0.
4.530116
 0.798782 0.
4.727077
 0.833511 0.
4.924039
 0.868241 0.
</DataArray>
</Points>
<Cells>
<DataArray Name="connectivity" type="Int32" format="ascii" >
22 21 0 1 
23 22 1 2 
24 23 2 3 
25 24 3 4 
26 25 4 5 
27 26 5 6 
28 27 6 7 
29 28 7 8 
30 29 8 9 
31 30 9 10 
32 31 10 11 
33 32 11 12 
34 33 12 13 
35 34 13 14 
36 35 14 15 
37 36 15 16 
38 37 16 17 
39 38 17 18 
40 39 18 19 
41 40 19 20 
43 42 21 22 
44 43 22 23 
45 44 23 24 
46 45 24 25 
47 46 25 26 
48 47 26 27 
49 48 27 28 
50 49 28 29 
51 50 29 30 
52 51 30 31 
53 52 31 32 
54 53 32 33 
55 54 33 34 
56 55 34 35 
57 56 35 36 
58 57 36 37 
59 58 37 38 
60 59 38 39 
61 60 39 40 
62 61 40 41 
64 63 42 43 
65 64 43 44 
66 65 44 45 
67 66 45 46 
68 67 46 47 
69 68 47 48 
70 69 48 49 
71 70 49 50 
72 71 50 51 
73 72 51 52 
74 73 52 53 
75 74 53 54 
76 75 54 55 
77 76 55 56 
78 77 56 57 
79 78 57 58 
80 79 58 59 
81 80 59 60 
82 81 60 61 
83 82 61 62 
85 84 63 64 
86 85 64 65 
87 86 65 66 
88 87 66 67 
89 88 67 68 
90 89 68 69 
91 90 69 70 
92 91 70 71 
93 92 71 72 
94 93 72 73 
95 94 73 74 
96 95 74 75 
97 96 75 76 
98 97 76 77 
99 98 77 78 
100 99 78 79 
101 100 79 80 
102 101 80 81 
103 102 81 82 
104 103 82 83 
106 105 84 85 
107 106 85 86 
108 107 86 87 
109 108 87 88 
110 109 88 89 
111 110 89 90 
112 111 90 91 
113 112 91 92 
114 113 92 93 
115 114 93 94 
116 115 94 95 
117 116 95 96 
118 117 96 97 
119 118 97 98 
120 119 98 99 
121 120 99 100 
122 121 100 101 
123 122 101 102 
124 123 102 103 
125 124 103 104 
127 126 105 106 
128 127 106 107 
129 128 107 108 
130 129 108 109 
131 130 109 110 
132 131 110 111 
133 132 111 112 
134 133 112 113 
135 134 113 114 
136 135 114 115 
137 136 115 116 
138 137 116 117 
139 138 117 118 
140 139 118 119 
141 140 119 120 
142 141 120 121 
143 142 121 122 
144 143 122 123 
145 144 123 124 
146 145 124 125 
148 147 126 127 
149 148 127 128 
150 149 128 129 
151 150 129 130 
152 151 130 131 
153 152 131 132 
154 153 132 133 
155 154 133 134 
156 155 134 135 
157 156 135 136 
158 157 136 137 
159 158 137 138 
160 159 138 139 
161 160 139 140 
162 161 140 141 
163 162 141 142 
164 163 142 143 
165 164 143 144 
166 165 144 145 
167 166 145 146 
169 168 147 148 
170 169 148 149 
171 170 149 150 
172 171 150 151 
173 172 151 152 
174 173 152 153 
175 174 153 154 
176 175 154 155 
177 176 155 156 
178 177 156 157 
179 178 157 158 
180 179 158 159 
181 180 159 160 
182 181 160 161 
183 182 161 162 
184 183 162 163 
185 184 163 164 
186 185 164 165 
187 186 165 166 
188 187 166 167 
</DataArray>
<DataArray Name="offsets" type="Int32" format="ascii" >
4 8 12 16 20 24 28 32 36 40 44 48 52 56 60 64 68 72 76 80 84 88 92 96 100 104 108 112 116 120 124 128 132 136 140 144 148 152 156 160 164 168 172 176 180 184 188 192 196 200 204 208 212 216 220 224 228 232 236 240 244 248 252 256 260 264 268 272 276 280 284 288 292 296 300 304 308 312 316 320 324 328 332 336 340 344 348 352 356 360 364 368 372 376 380 384 388 392 396 400 404 408 412 416 420 424 428 432 436 440 444 448 452 456 460 464 468 472 476 480 484 488 492 496 500 504 508 512 516 520 524 528 532 536 540 544 548 552 556 560 564 568 572 576 580 584 588 592 596 600 604 608 612 616 620 624 628 632 636 640 
</DataArray>
<DataArray Name="types" type="UInt8" format="ascii" >
10 10 10 10 10 10 10 10 10 10 10 10 10 10 10 10 10 10 10 10 10 10 10 10 10 10 10 10 10 10 10 10 10 10 10 10 10 10 10 10 10 10 10 10 10 10 10 10 10 10 10 10 10 10 10 10 10 10 10 10 10 10 10 10 10 10 10 10 10 10 10 10 10 10 10 10 10 10 10 10 10 10 10 10 10 10 10 10 10 10 10 10 10 10 10 10 10 10 10 10 10 10 10 10 10 10 10 10 10 10 10 10 10 10 10 10 10 10 10 10 10 10 10 10 10 10 10 10 10 10 10 10 10 10 10 10 10 10 10 10 10 10 10 10 10 10 10 10 10 10 10 10 10 10 10 10 10 10 10 10 
</DataArray>
</Cells>
<PointData Scalars="scalars" format="ascii">
<DataArray Name="DefGrad_F" NumberOfComponents="4" type="Float32" format="ascii" >
1.000000 0.000000 0.000000 1.000000 
0.924075 0.001959 -0.000000 1.082155 
0.853895 0.003945 0.000017 1.171085 
0.789034 0.005968 0.000051 1.267343 
0.729092 0.008039 0.000101 1.371527 
0.673700 0.010168 0.000166 1.484286 
0.622514 0.012367 0.000248 1.606322 
0.575217 0.014649 0.000345 1.738392 
0.531514 0.017028 0.000460 1.881319 
0.491134 0.019517 0.000592 2.035991 
0.453825 0.022131 0.000742 2.203369 
0.419353 0.024886 0.000911 2.384493 
0.387502 0.027798 0.001102 2.580488 
0.358075 0.030887 0.001314 2.792570 
0.330887 0.034170 0.001551 3.022054 
0.305767 0.037667 0.001813 3.270363 
0.282558 0.041400 0.002103 3.539036 
0.261115 0.045392 0.002424 3.829738 
0.241304 0.049668 0.002777 4.144268 
0.223000 0.054255 0.003172 4.484579 
0.206021 0.059082 0.001451 4.852358 
1.000000 0.000000 0.000000 1.000000 
0.924089 -0.000477 0.000128 1.082150 
0.853920 -0.000945 0.000271 1.171075 
0.789067 -0.001408 0.000430 1.267328 
0.729131 -0.001873 0.000604 1.371508 
0.673743 -0.002343 0.000794 1.484263 
0.622559 -0.002821 0.001002 1.606294 
0.575263 -0.003313 0.001228 1.738361 
0.531560 -0.003821 0.001474 1.881285 
0.491178 -0.004350 0.001741 2.035955 
0.453866 -0.004903 0.002030 2.203331 
0.419390 -0.005485 0.002345 2.384455 
0.387535 -0.006098 0.002687 2.580450 
0.358103 -0.006747 0.003059 2.792534 
0.330908 -0.007437 0.003462 3.022021 
0.305781 -0.008171 0.003900 3.270336 
0.282565 -0.008955 0.004377 3.539017 
0.261114 -0.009794 0.004894 3.829729 
0.241294 -0.010692 0.005457 4.144272 
0.222981 -0.011656 0.006064 4.484602 
0.206038 -0.012782 0.004649 4.852010 
1.000000 0.000000 0.000000 1.000000 
0.924095 0.000349 0.000271 1.082138 
0.853932 0.000709 0.000553 1.171051 
0.789083 0.001079 0.000847 1.267290 
0.729149 0.001461 0.001154 1.371456 
0.673763 0.001857 0.001477 1.484195 
0.622581 0.002268 0.001817 1.606210 
0.575285 0.002695 0.002176 1.738260 
0.531583 0.003143 0.002555 1.881165 
0.491202 0.003612 0.002959 2.035815 
0.453890 0.004105 0.003389 2.203171 
0.419415 0.004626 0.003847 2.384272 
0.387561 0.005176 0.004338 2.580244 
0.358129 0.005761 0.004863 2.792303 
0.330936 0.006382 0.005427 3.021765 
0.305810 0.007044 0.006033 3.270053 
0.282595 0.007750 0.006686 3.538707 
0.261146 0.008506 0.007389 3.829391 
0.241328 0.009315 0.008147 4.143905 
0.223017 0.010184 0.008964 4.484205 
0.206062 0.011022 0.007751 4.851702 
1.000000 0.000000 0.000000 1.000000 
0.924092 0.000251 0.000351 1.082142 
0.853926 0.000507 0.000709 1.171061 
0.789073 0.000769 0.001076 1.267307 
0.729137 0.001039 0.001453 1.371482 
0.673748 0.001317 0.001844 1.484232 
0.622563 0.001605 0.002249 1.606259 
0.575266 0.001905 0.002673 1.738324 
0.531562 0.002218 0.003117 1.881247 
0.491179 0.002546 0.003584 2.035918 
0.453866 0.002890 0.004078 2.203298 
0.419390 0.003254 0.004600 2.384428 
0.387535 0.003638 0.005155 2.580433 
0.358102 0.004046 0.005747 2.792530 
0.330908 0.004480 0.006378 3.022036 
0.305782 0.004941 0.007052 3.270374 
0.282567 0.005434 0.007775 3.539086 
0.261117 0.005962 0.008551 3.829836 
0.241299 0.006526 0.009385 4.144426 
0.222988 0.007133 0.010279 4.484813 
0.206035 0.007691 0.009166 4.852382 
1.000000 0.000000 0.000000 1.000000 
0.924084 0.000325 0.000390 1.082151 
0.853911 0.000653 0.000783 1.171080 
0.789053 0.000984 0.001180 1.267339 
0.729112 0.001321 0.001584 1.371527 
0.673719 0.001667 0.001999 1.484294 
0.622531 0.002023 0.002425 1.606341 
0.575231 0.002391 0.002866 1.738427 
0.531525 0.002774 0.003325 1.881376 
0.491141 0.003175 0.003805 2.036076 
0.453826 0.003595 0.004308 2.203489 
0.419349 0.004038 0.004838 2.384657 
0.387494 0.004506 0.005398 2.580706 
0.358061 0.005002 0.005991 2.792852 
0.330867 0.005529 0.006621 3.022414 
0.305741 0.006090 0.007292 3.270817 
0.282527 0.006690 0.008008 3.539600 
0.261078 0.007331 0.008774 3.830432 
0.241260 0.008018 0.009595 4.145115 
0.222950 0.008755 0.010472 4.485605 
0.205998 0.009455 0.009350 4.853297 
1.000000 0.000000 0.000000 1.000000 
0.924075 0.000353 0.000381 1.082162 
0.853894 0.000705 0.000759 1.171103 
0.789030 0.001058 0.001138 1.267375 
0.729084 0.001414 0.001519 1.371579 
0.673687 0.001778 0.001906 1.484363 
0.622496 0.002150 0.002300 1.606429 
0.575193 0.002534 0.002705 1.738538 
0.531485 0.002933 0.003122 1.881511 
0.491100 0.003349 0.003555 2.036239 
0.453785 0.003785 0.004006 2.203685 
0.419307 0.004244 0.004478 2.384888 
0.387451 0.004729 0.004973 2.580977 
0.358019 0.005242 0.005495 2.793169 
0.330825 0.005787 0.006047 3.022782 
0.305699 0.006368 0.006632 3.271242 
0.282485 0.006989 0.007254 3.540089 
0.261037 0.007652 0.007916 3.830993 
0.241220 0.008363 0.008622 4.145757 
0.222911 0.009126 0.009375 4.486338 
0.205959 0.009854 0.008125 4.854130 
1.000000 0.000000 0.000000 1.000000 
0.924068 0.000125 0.000335 1.082171 
0.853882 0.000242 0.000662 1.171122 
0.789013 0.000354 0.000986 1.267405 
0.729064 0.000464 0.001307 1.371620 
0.673664 0.000572 0.001628 1.484416 
0.622471 0.000680 0.001951 1.606496 
0.575167 0.000790 0.002279 1.738620 
0.531458 0.000901 0.002613 1.881610 
0.491072 0.001017 0.002956 2.036356 
0.453756 0.001136 0.003310 2.203822 
0.419278 0.001262 0.003676 2.385047 
0.387422 0.001393 0.004058 2.581160 
0.357989 0.001532 0.004456 2.793379 
0.330795 0.001680 0.004874 3.023022 
0.305669 0.001837 0.005313 3.271514 
0.282455 0.002005 0.005777 3.540399 
0.261007 0.002184 0.006268 3.831343 
0.241190 0.002377 0.006788 4.146151 
0.222880 0.002585 0.007338 4.486782 
0.205932 0.002717 0.005876 4.854588 
1.000000 0.000000 0.000000 1.000000 
0.924067 0.000701 0.000218 1.082169 
0.853882 0.001395 0.000422 1.171116 
0.789014 0.002087 0.000617 1.267394 
0.729067 0.002785 0.000802 1.371601 
0.673670 0.003495 0.000981 1.484388 
0.622479 0.004220 0.001154 1.606456 
0.575178 0.004967 0.001322 1.738564 
0.531471 0.005742 0.001487 1.881536 
0.491087 0.006549 0.001649 2.036261 
0.453773 0.007394 0.001810 2.203701 
0.419297 0.008283 0.001970 2.384896 
0.387443 0.009221 0.002130 2.580974 
0.358012 0.010215 0.002292 2.793153 
0.330819 0.011272 0.002455 3.022749 
0.305695 0.012397 0.002620 3.271187 
0.282482 0.013597 0.002789 3.540010 
0.261035 0.014882 0.002961 3.830884 
0.241219 0.016258 0.003137 4.145612 
0.222910 0.017736 0.003317 4.486152 
0.205954 0.019227 0.001426 4.853940 
1.000000 0.000000 0.000000 1.000000 
0.924074 -0.001938 0.000163 1.082174 
0.853894 -0.003903 0.000311 1.171124 
0.789032 -0.005904 0.000444 1.267404 
0.729089 -0.007952 0.000566 1.371613 
0.673695 -0.010057 0.000676 1.484400 
0.622507 -0.012231 0.000777 1.606467 
0.575208 -0.014488 0.000869 1.738573 
0.531503 -0.016839 0.000952 1.881542 
0.491119 -0.019300 0.001027 2.036261 
0.453806 -0.021885 0.001095 2.203693 
0.419329 -0.024609 0.001156 2.384880 
0.387474 -0.027489 0.001209 2.580947 
0.358042 -0.030543 0.001255 2.793111 
0.330847 -0.033789 0.001294 3.022690 
0.305721 -0.037247 0.001326 3.271109 
0.282505 -0.040939 0.001351 3.539908 
0.261055 -0.044887 0.001367 3.830754 
0.241236 -0.049116 0.001375 4.145450 
0.222924 -0.053650 0.001363 4.485952 
0.206011 -0.058594 -0.000664 4.853280 

</DataArray>
<DataArray Name="Vel" NumberOfComponents="2" type="Float32" format="ascii" >
0.098481 -0.017365 
0.082067 -0.014471 
0.070343 -0.012403 
0.061550 -0.010853 
0.054712 -0.009647 
0.049240 -0.008682 
0.044764 -0.007893 
0.041034 -0.007235 
0.037877 -0.006679 
0.035172 -0.006202 
0.032827 -0.005788 
0.030775 -0.005427 
0.028965 -0.005107 
0.027356 -0.004824 
0.025916 -0.004570 
0.024620 -0.004341 
0.023448 -0.004134 
0.022382 -0.003947 
0.021409 -0.003775 
0.020517 -0.003618 
0.019696 -0.003473 
0.099144 -0.013053 
0.082620 -0.010877 
0.070817 -0.009323 
0.061965 -0.008158 
0.055080 -0.007251 
0.049572 -0.006526 
0.045066 -0.005933 
0.041310 -0.005439 
0.038132 -0.005020 
0.035409 -0.004662 
0.033048 -0.004351 
0.030983 -0.004079 
0.029160 -0.003839 
0.027540 -0.003626 
0.026091 -0.003435 
0.024786 -0.003263 
0.023606 -0.003108 
0.022533 -0.002967 
0.021553 -0.002838 
0.020655 -0.002719 
0.019829 -0.002611 
0.099619 -0.008716 
0.083016 -0.007263 
0.071157 -0.006225 
0.062262 -0.005447 
0.055344 -0.004842 
0.049810 -0.004358 
0.045282 -0.003962 
0.041508 -0.003631 
0.038315 -0.003352 
0.035578 -0.003113 
0.033206 -0.002905 
0.031131 -0.002724 
0.029300 -0.002563 
0.027672 -0.002421 
0.026216 -0.002294 
0.024905 -0.002179 
0.023719 -0.002075 
0.022641 -0.001981 
0.021656 -0.001895 
0.020754 -0.001816 
0.019924 -0.001743 
0.099905 -0.004362 
0.083254 -0.003635 
0.071361 -0.003116 
0.062441 -0.002726 
0.055503 -0.002423 
0.049952 -0.002181 
0.045411 -0.001983 
0.041627 -0.001817 
0.038425 -0.001678 
0.035680 -0.001558 
0.033302 -0.001454 
0.031220 -0.001363 
0.029384 -0.001283 
0.027751 -0.001212 
0.026291 -0.001148 
0.024976 -0.001090 
0.023787 -0.001039 
0.022706 -0.000991 
0.021718 -0.000948 
0.020814 -0.000909 
0.019981 -0.000872 
0.100000 0.000000 
0.083333 0.000000 
0.071429 0.000000 
0.062500 0.000000 
0.055556 0.000000 
0.050000 0.000000 
0.045455 0.000000 
0.041667 0.000000 
0.038462 0.000000 
0.035714 0.000000 
0.033333 0.000000 
0.031250 0.000000 
0.029412 0.000000 
0.027778 0.000000 
0.026316 0.000000 
0.025000 0.000000 
0.023810 0.000000 
0.022727 0.000000 
0.021739 0.000000 
0.020833 0.000000 
0.020000 0.000000 
0.099905 0.004362 
0.083254 0.003635 
0.071361 0.003116 
0.062441 0.002726 
0.055503 0.002423 
0.049952 0.002181 
0.045411 0.001983 
0.041627 0.001817 
0.038425 0.001678 
0.035680 0.001558 
0.033302 0.001454 
0.031220 0.001363 
0.029384 0.001283 
0.027751 0.001212 
0.026291 0.001148 
0.024976 0.001090 
0.023787 0.001039 
0.022706 0.000991 
0.021718 0.000948 
0.020814 0.000909 
0.019981 0.000872 
0.099619 0.008716 
0.083016 0.007263 
0.071157 0.006225 
0.062262 0.005447 
0.055344 0.004842 
0.049810 0.004358 
0.045282 0.003962 
0.041508 0.003631 
0.038315 0.003352 
0.035578 0.003113 
0.033206 0.002905 
0.031131 0.002724 
0.029300 0.002563 
0.027672 0.002421 
0.026216 0.002294 
0.024905 0.002179 
0.023719 0.002075 
0.022641 0.001981 
0.021656 0.001895 
0.020754 0.001816 
0.019924 0.001743 
0.099144 0.013053 
0.082620 0.010877 
0.070817 0.009323 
0.061965 0.008158 
0.055080 0.007251 
0.049572 0.006526 
0.045066 0.005933 
0.041310 0.005439 
0.038132 0.005020 
0.035409 0.004662 
0.033048 0.004351 
0.030983 0.004079 
0.029160 0.003839 
0.027540 0.003626 
0.026091 0.003435 
0.024786 0.003263 
0.023606 0.003108 
0.022533 0.002967 
0.021553 0.002838 
0.020655 0.002719 
0.019829 0.002611 
0.098481 0.017365 
0.082067 0.014471 
0.070343 0.012403 
0.061550 0.010853 
0.054712 0.009647 
0.049240 0.008682 
0.044764 0.007893 
0.041034 0.007235 
0.037877 0.006679 
0.035172 0.006202 
0.032827 0.005788 
0.030775 0.005427 
0.028965 0.005107 
0.027356 0.004824 
0.025916 0.004570 
0.024620 0.004341 
0.023448 0.004134 
0.022382 0.003947 
0.021409 0.003775 
0.020517 0.003618 
0.019696 0.003473 

</DataArray>
</PointData>
</Piece>
</UnstructuredGrid>
</VTKFile>
