<?xml version="1.0"?>
<VTKFile type="UnstructuredGrid">
<UnstructuredGrid>
<Piece NumberOfPoints="6" NumberOfCells="2">
<Points>
<DataArray NumberOfComponents="3" type="Float32" format="ascii" >
0.000000
 0.000000 0.
0.050000
 0.000000 0.
0.100000
 0.000000 0.
0.000000
 0.010000 0.
0.050000
 0.010000 0.
0.100000
 0.010000 0.
</DataArray>
</Points>
<Cells>
<DataArray Name="connectivity" type="Int32" format="ascii" >
4 3 0 1 
5 4 1 2 
</DataArray>
<DataArray Name="offsets" type="Int32" format="ascii" >
4 8 
</DataArray>
<DataArray Name="types" type="UInt8" format="ascii" >
10 10 
</DataArray>
</Cells>
<PointData Scalars="scalars" format="ascii">
<DataArray Name=" Veloc " NumberOfComponents="2" type="Float32" format="ascii" >
1.000000 0.000000 
1.001000 0.000000 
1.000000 0.000000 
1.000000 0.000000 
1.001000 0.000000 
1.000000 0.000000 

</DataArray>
<DataArray Name=" DefGrad_F " NumberOfComponents="4" type="Float32" format="ascii" >
1.000000 0.000000 0.000000 1.000000 
1.000372 0.000000 0.000000 1.000000 
1.000186 0.000000 0.000000 1.000000 
1.000000 0.000000 0.000000 1.000000 
0.998613 0.000000 0.000000 1.000000 
0.999306 0.000000 0.000000 1.000000 

</DataArray>
</PointData>
</Piece>
</UnstructuredGrid>
</VTKFile>
