<?xml version="1.0"?>
<VTKFile type="UnstructuredGrid">
<UnstructuredGrid>
<Piece NumberOfPoints="25" NumberOfCells="16">
<Points>
<DataArray NumberOfComponents="3" type="Float32" format="ascii" >
0.984808
 -0.173648 0.
1.231010
 -0.217060 0.
1.477212
 -0.260472 0.
1.723414
 -0.303884 0.
1.969616
 -0.347296 0.
0.996195
 -0.087156 0.
1.245243
 -0.108945 0.
1.494292
 -0.130734 0.
1.743341
 -0.152523 0.
1.992389
 -0.174311 0.
1.000000
 0.000000 0.
1.250000
 0.000000 0.
1.500000
 0.000000 0.
1.750000
 0.000000 0.
2.000000
 0.000000 0.
0.996195
 0.087156 0.
1.245243
 0.108945 0.
1.494292
 0.130734 0.
1.743341
 0.152523 0.
1.992389
 0.174311 0.
0.984808
 0.173648 0.
1.231010
 0.217060 0.
1.477212
 0.260472 0.
1.723414
 0.303884 0.
1.969616
 0.347296 0.
</DataArray>
</Points>
<Cells>
<DataArray Name="connectivity" type="Int32" format="ascii" >
6 5 0 1 
7 6 1 2 
8 7 2 3 
9 8 3 4 
11 10 5 6 
12 11 6 7 
13 12 7 8 
14 13 8 9 
16 15 10 11 
17 16 11 12 
18 17 12 13 
19 18 13 14 
21 20 15 16 
22 21 16 17 
23 22 17 18 
24 23 18 19 
</DataArray>
<DataArray Name="offsets" type="Int32" format="ascii" >
4 8 12 16 20 24 28 32 36 40 44 48 52 56 60 64 
</DataArray>
<DataArray Name="types" type="UInt8" format="ascii" >
10 10 10 10 10 10 10 10 10 10 10 10 10 10 10 10 
</DataArray>
</Cells>
<PointData Scalars="scalars" format="ascii">
<DataArray Name="Var" NumberOfComponents="4" type="Float32" format="ascii" >
1.000000 0.000000 0.000000 1.000000 1.000000 0.000000 3.963074 -0.288984 1.000000 0.000000 2.691335 0.336270 1.000000 0.000000 4.049527 -1.055303 1.000000 0.000000 2.149002 -0.547209 1.000000 0.000000 0.000000 1.000000 1.000000 0.000000 2.291321 -0.155137 1.000000 0.000000 0.703798 0.465788 1.000000 0.000000 7.608651 -3.220562 1.000000 0.000000 6.695205 -3.696554 1.000000 0.000000 0.000000 1.000000 1.000000 0.000000 3.535433 -0.412249 1.000000 0.000000 3.167542 -0.448571 1.000000 0.000000 10.982227 -3.798555 1.000000 0.000000 14.051187 -4.417802 1.000000 0.000000 0.000000 1.000000 1.000000 0.000000 2.891968 0.023290 1.000000 0.000000 -1.098180 1.286520 1.000000 0.000000 5.588869 0.212786 1.000000 0.000000 7.574616 -0.514407 1.000000 0.000000 0.000000 1.000000 1.000000 0.000000 0.616913 1.053847 1.000000 0.000000 -2.253530 2.088030 1.000000 0.000000 1.273345 1.789769 1.000000 0.000000 39.133674 -10.763371 
</DataArray>
</PointData>
</Piece>
</UnstructuredGrid>
</VTKFile>
