<?xml version="1.0"?>
<VTKFile type="UnstructuredGrid">
<UnstructuredGrid>
<Piece NumberOfPoints="15" NumberOfCells="8">
<Points>
<DataArray NumberOfComponents="3" type="Float32" format="ascii" >
1.999888
 -0.020000 0.
2.049879
 -0.021012 0.
2.099870
 -0.022049 0.
1.999941
 -0.015000 0.
2.049937
 -0.015631 0.
2.099933
 -0.016275 0.
1.999975
 -0.010000 0.
2.049974
 -0.010250 0.
2.099974
 -0.010500 0.
1.999991
 -0.005000 0.
2.049991
 -0.004869 0.
2.099991
 -0.004725 0.
1.999988
 -0.000000 0.
2.049987
 0.000512 0.
2.099986
 0.001050 0.
</DataArray>
</Points>
<Cells>
<DataArray Name="connectivity" type="Int32" format="ascii" >
4 3 0 1 
5 4 1 2 
7 6 3 4 
8 7 4 5 
10 9 6 7 
11 10 7 8 
13 12 9 10 
14 13 10 11 
</DataArray>
<DataArray Name="offsets" type="Int32" format="ascii" >
4 8 12 16 20 24 28 32 
</DataArray>
<DataArray Name="types" type="UInt8" format="ascii" >
10 10 10 10 10 10 10 10 
</DataArray>
</Cells>
<PointData Scalars="scalars" format="ascii">
<DataArray Name="DefGrad_F" NumberOfComponents="6" type="Float32" format="ascii" >
1.000000 0.000000 1.001000 0.000000 1.000000 0.000000 
1.000000 0.000000 1.001000 0.000000 1.000000 0.000000 
1.000000 0.000000 1.001000 0.000000 1.000000 -0.000000 
1.000000 0.000000 1.001000 0.000000 1.000000 -0.000000 
1.000000 0.000000 1.001000 0.000000 1.000000 -0.000000 
1.000000 0.000000 0.000000 1.000000 0.999822 0.000000 
0.000002 1.000000 0.999718 0.000000 0.000003 1.000000 
1.000000 0.000000 0.000000 1.000000 0.999384 -0.000000 
0.000007 1.000000 1.000059 -0.000000 -0.000001 1.000000 
1.000000 0.000000 0.000000 1.000000 0.999626 0.000000 
0.000002 1.000000 0.999910 0.000000 0.000001 1.000000 
1.000000 0.000000 0.000000 1.000000 0.999820 0.000000 
0.000001 1.000000 1.000086 -0.000000 0.000000 1.000000 
1.000000 0.000000 0.000000 1.000000 0.999404 -0.000000 
-0.000001 1.000000 0.999891 0.000000 0.000000 1.000000 

</DataArray>
<DataArray Name="Vel" NumberOfComponents="2" type="Float32" format="ascii" >
0.049998 -0.000500 
0.048778 -0.000500 
0.047617 -0.000500 
0.049999 -0.000375 
0.048779 -0.000372 
0.047618 -0.000369 
0.049999 -0.000250 
0.048780 -0.000244 
0.047618 -0.000238 
0.050000 -0.000125 
0.048780 -0.000116 
0.047619 -0.000107 
0.050000 -0.000000 
0.048781 0.000012 
0.047619 0.000024 

</DataArray>
</PointData>
</Piece>
</UnstructuredGrid>
</VTKFile>
