<?xml version="1.0"?>
<VTKFile type="UnstructuredGrid">
<UnstructuredGrid>
<Piece NumberOfPoints="9" NumberOfCells="4">
<Points>
<DataArray NumberOfComponents="3" type="Float32" format="ascii" >
0.984808
 -0.173648 0.
1.477212
 -0.260472 0.
1.969616
 -0.347296 0.
1.000000
 0.000000 0.
1.500000
 0.000000 0.
2.000000
 0.000000 0.
0.984808
 0.173648 0.
1.477212
 0.260472 0.
1.969616
 0.347296 0.
</DataArray>
</Points>
<Cells>
<DataArray Name="connectivity" type="Int32" format="ascii" >
4 3 0 1 
5 4 1 2 
7 6 3 4 
8 7 4 5 
</DataArray>
<DataArray Name="offsets" type="Int32" format="ascii" >
4 8 12 16 
</DataArray>
<DataArray Name="types" type="UInt8" format="ascii" >
10 10 10 10 
</DataArray>
</Cells>
<PointData Scalars="scalars" format="ascii">
<DataArray Name="Var" NumberOfComponents="4" type="Float32" format="ascii" >
1.000000 0.000000 0.000000 1.000000 
1.000000 0.000000 -0.113457 1.011327 
1.000000 0.000000 -0.376404 1.062209 
1.000000 0.000000 0.000000 1.000000 
1.000000 0.000000 -0.009360 0.988942 
1.000000 0.000000 0.108738 0.985104 
1.000000 0.000000 0.000000 1.000000 
1.000000 0.000000 -0.004057 1.011089 
1.000000 0.000000 -0.045210 1.012022 

</DataArray>
</PointData>
</Piece>
</UnstructuredGrid>
</VTKFile>
