<?xml version="1.0"?>
<VTKFile type="UnstructuredGrid">
<UnstructuredGrid>
<Piece NumberOfPoints="9" NumberOfCells="4">
<Points>
<DataArray NumberOfComponents="3" type="Float32" format="ascii" >
0.984808
 -0.173648 0.
1.477212
 -0.260472 0.
1.969616
 -0.347296 0.
1.000000
 0.000000 0.
1.500000
 0.000000 0.
2.000000
 0.000000 0.
0.984808
 0.173648 0.
1.477212
 0.260472 0.
1.969616
 0.347296 0.
</DataArray>
</Points>
<Cells>
<DataArray Name="connectivity" type="Int32" format="ascii" >
4 3 0 1 
5 4 1 2 
7 6 3 4 
8 7 4 5 
</DataArray>
<DataArray Name="offsets" type="Int32" format="ascii" >
4 8 12 16 
</DataArray>
<DataArray Name="types" type="UInt8" format="ascii" >
10 10 10 10 
</DataArray>
</Cells>
<PointData Scalars="scalars" format="ascii">
<DataArray Name="DefGrad_F" NumberOfComponents="4" type="Float32" format="ascii" >
1.000000 0.000000 0.000000 1.000000 
1.200595 -0.075746 -0.036366 0.885359 
1.247203 -0.116806 -0.067796 0.174001 
1.000000 0.000000 0.000000 1.000000 
1.403982 -0.066932 -0.074925 0.661282 
1.569256 0.046699 -0.097586 -0.609521 
1.000000 0.000000 0.000000 1.000000 
1.877429 0.363770 0.190869 0.358562 
2.150097 1.013632 0.210179 -1.614709 

</DataArray>
<DataArray Name="Vel" NumberOfComponents="2" type="Float32" format="ascii" >
0.098481 -0.017365 
0.065654 -0.011577 
0.049240 -0.008682 
0.100000 0.000000 
0.066667 0.000000 
0.050000 0.000000 
0.098481 0.017365 
0.065654 0.011577 
0.049240 0.008682 

</DataArray>
</PointData>
</Piece>
</UnstructuredGrid>
</VTKFile>
