<?xml version="1.0"?>
<VTKFile type="UnstructuredGrid">
<UnstructuredGrid>
<Piece NumberOfPoints="25" NumberOfCells="16">
<Points>
<DataArray NumberOfComponents="3" type="Float32" format="ascii" >
0.984808
 -0.173648 0.
1.969616
 -0.347296 0.
2.954423
 -0.520945 0.
3.939231
 -0.694593 0.
4.924039
 -0.868241 0.
0.996195
 -0.087156 0.
1.992389
 -0.174311 0.
2.988584
 -0.261467 0.
3.984779
 -0.348623 0.
4.980973
 -0.435779 0.
1.000000
 0.000000 0.
2.000000
 0.000000 0.
3.000000
 0.000000 0.
4.000000
 0.000000 0.
5.000000
 0.000000 0.
0.996195
 0.087156 0.
1.992389
 0.174311 0.
2.988584
 0.261467 0.
3.984779
 0.348623 0.
4.980973
 0.435779 0.
0.984808
 0.173648 0.
1.969616
 0.347296 0.
2.954423
 0.520945 0.
3.939231
 0.694593 0.
4.924039
 0.868241 0.
</DataArray>
</Points>
<Cells>
<DataArray Name="connectivity" type="Int32" format="ascii" >
6 5 0 1 
7 6 1 2 
8 7 2 3 
9 8 3 4 
11 10 5 6 
12 11 6 7 
13 12 7 8 
14 13 8 9 
16 15 10 11 
17 16 11 12 
18 17 12 13 
19 18 13 14 
21 20 15 16 
22 21 16 17 
23 22 17 18 
24 23 18 19 
</DataArray>
<DataArray Name="offsets" type="Int32" format="ascii" >
4 8 12 16 20 24 28 32 36 40 44 48 52 56 60 64 
</DataArray>
<DataArray Name="types" type="UInt8" format="ascii" >
10 10 10 10 10 10 10 10 10 10 10 10 10 10 10 10 
</DataArray>
</Cells>
<PointData Scalars="scalars" format="ascii">
<DataArray Name="DefGrad_F" NumberOfComponents="4" type="Float32" format="ascii" >
1.000000 0.000000 0.000000 1.000000 
0.670072 0.020720 0.000675 1.492895 
0.449051 0.045078 0.002055 2.228576 
0.301095 0.076892 0.004267 3.326369 
0.201538 0.120416 0.003305 4.939118 
1.000000 0.000000 0.000000 1.000000 
0.670121 -0.004192 0.001594 1.493029 
0.449059 -0.008902 0.003812 2.229080 
0.301012 -0.014974 0.006910 3.327657 
0.201494 -0.023518 0.007621 4.939981 
1.000000 0.000000 0.000000 1.000000 
0.670083 0.001574 0.002288 1.493031 
0.449006 0.003401 0.004932 2.229169 
0.300967 0.005785 0.008247 3.328051 
0.201443 0.008871 0.008883 4.941459 
1.000000 0.000000 0.000000 1.000000 
0.670044 0.006232 0.001586 1.493068 
0.448968 0.013316 0.003058 2.229234 
0.300944 0.022498 0.004521 3.328148 
0.201417 0.034890 0.002185 4.941846 
1.000000 0.000000 0.000000 1.000000 
0.670087 -0.020527 0.001114 1.493257 
0.449015 -0.044663 0.001834 2.229683 
0.300964 -0.076185 0.002142 3.328942 
0.201538 -0.119616 -0.001390 4.941050 

</DataArray>
<DataArray Name="Vel" NumberOfComponents="2" type="Float32" format="ascii" >
0.098481 -0.017365 
0.049240 -0.008682 
0.032827 -0.005788 
0.024620 -0.004341 
0.019696 -0.003473 
0.099619 -0.008716 
0.049810 -0.004358 
0.033206 -0.002905 
0.024905 -0.002179 
0.019924 -0.001743 
0.100000 0.000000 
0.050000 0.000000 
0.033333 0.000000 
0.025000 0.000000 
0.020000 0.000000 
0.099619 0.008716 
0.049810 0.004358 
0.033206 0.002905 
0.024905 0.002179 
0.019924 0.001743 
0.098481 0.017365 
0.049240 0.008682 
0.032827 0.005788 
0.024620 0.004341 
0.019696 0.003473 

</DataArray>
</PointData>
</Piece>
</UnstructuredGrid>
</VTKFile>
