<?xml version="1.0"?>
<VTKFile type="UnstructuredGrid">
<UnstructuredGrid>
<Piece NumberOfPoints="6" NumberOfCells="2">
<Points>
<DataArray NumberOfComponents="3" type="Float32" format="ascii" >
1.865709
 -0.677194 0.
2.246504
 -1.043934 0.
2.574386
 -1.480255 0.
1.984807
 -0.001756 0.
2.468069
 0.212628 0.
2.925408
 0.510493 0.
</DataArray>
</Points>
<Cells>
<DataArray Name="connectivity" type="Int32" format="ascii" >
4 3 0 1 
5 4 1 2 
</DataArray>
<DataArray Name="offsets" type="Int32" format="ascii" >
4 8 
</DataArray>
<DataArray Name="types" type="UInt8" format="ascii" >
10 10 
</DataArray>
</Cells>
<PointData Scalars="scalars" format="ascii">
<DataArray Name="DefGrad_F" NumberOfComponents="6" type="Float32" format="ascii" >
0.000000 0.000000 1.000000 0.000000 0.000000 1.000000 
0.000000 0.000000 1.000000 0.000000 0.000000 1.000000 
0.000000 0.000000 1.000000 0.000000 0.255825 0.936816 
10.013233 0.050237 0.225694 -0.216913 13.288976 11.630182 
0.000000 0.000000 1.000000 0.000000 1.662980 2.375050 
-10.805398 2.901786 3.094131 1.752416 -6.719652 -2.753019 

</DataArray>
<DataArray Name="Vel" NumberOfComponents="2" type="Float32" format="ascii" >
0.047359 -0.017190 
0.036608 -0.017012 
0.029193 -0.016786 
0.050383 -0.000045 
0.040219 0.003465 
0.033173 0.005789 

</DataArray>
</PointData>
</Piece>
</UnstructuredGrid>
</VTKFile>
