# vtk DataFile Version 3.0
#This file was generated by the deal.II library on 2020/2/18 at 10:47:00
ASCII
DATASET UNSTRUCTURED_GRID

POINTS 4 double
0 0 0
1 0 0
0 1 0
1 1 0

CELLS 1 5
4	0	1	3	2

CELL_TYPES 1
 9
POINT_DATA 4
SCALARS x_displacement double 1
LOOKUP_TABLE default
0 0 0 0 
SCALARS y_displacement double 1
LOOKUP_TABLE default
0 0 0 0 
