<?xml version="1.0"?>
<VTKFile type="UnstructuredGrid">
<UnstructuredGrid>
<Piece NumberOfPoints="242" NumberOfCells="100">
<Points>
<DataArray NumberOfComponents="3" type="Float32" format="ascii" >
-5.00000000e-001
-5.00000000e-001
 0.00000000e+000
 5.00000000e-001
-5.00000000e-001
 0.00000000e+000
 5.00000000e-001
 5.00000000e-001
 0.00000000e+000
-5.00000000e-001
 5.00000000e-001
 0.00000000e+000
-5.00000000e-001
-5.00000000e-001
 1.00000000e-001
 5.00000000e-001
-5.00000000e-001
 1.00000000e-001
 5.00000000e-001
 5.00000000e-001
 1.00000000e-001
-5.00000000e-001
 5.00000000e-001
 1.00000000e-001
-4.00000000e-001
-5.00000000e-001
 0.00000000e+000
-3.00000000e-001
-5.00000000e-001
 0.00000000e+000
-2.00000000e-001
-5.00000000e-001
 0.00000000e+000
-1.00000000e-001
-5.00000000e-001
 0.00000000e+000
 0.00000000e+000
-5.00000000e-001
 0.00000000e+000
 1.00000000e-001
-5.00000000e-001
 0.00000000e+000
 2.00000000e-001
-5.00000000e-001
 0.00000000e+000
 3.00000000e-001
-5.00000000e-001
 0.00000000e+000
 4.00000000e-001
-5.00000000e-001
 0.00000000e+000
 5.00000000e-001
-4.00000000e-001
 0.00000000e+000
 5.00000000e-001
-3.00000000e-001
 0.00000000e+000
 5.00000000e-001
-2.00000000e-001
 0.00000000e+000
 5.00000000e-001
-1.00000000e-001
 0.00000000e+000
 5.00000000e-001
 0.00000000e+000
 0.00000000e+000
 5.00000000e-001
 1.00000000e-001
 0.00000000e+000
 5.00000000e-001
 2.00000000e-001
 0.00000000e+000
 5.00000000e-001
 3.00000000e-001
 0.00000000e+000
 5.00000000e-001
 4.00000000e-001
 0.00000000e+000
 4.00000000e-001
 5.00000000e-001
 0.00000000e+000
 3.00000000e-001
 5.00000000e-001
 0.00000000e+000
 2.00000000e-001
 5.00000000e-001
 0.00000000e+000
 1.00000000e-001
 5.00000000e-001
 0.00000000e+000
 0.00000000e+000
 5.00000000e-001
 0.00000000e+000
-1.00000000e-001
 5.00000000e-001
 0.00000000e+000
-2.00000000e-001
 5.00000000e-001
 0.00000000e+000
-3.00000000e-001
 5.00000000e-001
 0.00000000e+000
-4.00000000e-001
 5.00000000e-001
 0.00000000e+000
-5.00000000e-001
 4.00000000e-001
 0.00000000e+000
-5.00000000e-001
 3.00000000e-001
 0.00000000e+000
-5.00000000e-001
 2.00000000e-001
 0.00000000e+000
-5.00000000e-001
 1.00000000e-001
 0.00000000e+000
-5.00000000e-001
 0.00000000e+000
 0.00000000e+000
-5.00000000e-001
-1.00000000e-001
 0.00000000e+000
-5.00000000e-001
-2.00000000e-001
 0.00000000e+000
-5.00000000e-001
-3.00000000e-001
 0.00000000e+000
-5.00000000e-001
-4.00000000e-001
 0.00000000e+000
-4.00000000e-001
-5.00000000e-001
 1.00000000e-001
-3.00000000e-001
-5.00000000e-001
 1.00000000e-001
-2.00000000e-001
-5.00000000e-001
 1.00000000e-001
-1.00000000e-001
-5.00000000e-001
 1.00000000e-001
 0.00000000e+000
-5.00000000e-001
 1.00000000e-001
 1.00000000e-001
-5.00000000e-001
 1.00000000e-001
 2.00000000e-001
-5.00000000e-001
 1.00000000e-001
 3.00000000e-001
-5.00000000e-001
 1.00000000e-001
 4.00000000e-001
-5.00000000e-001
 1.00000000e-001
 5.00000000e-001
-4.00000000e-001
 1.00000000e-001
 5.00000000e-001
-3.00000000e-001
 1.00000000e-001
 5.00000000e-001
-2.00000000e-001
 1.00000000e-001
 5.00000000e-001
-1.00000000e-001
 1.00000000e-001
 5.00000000e-001
 0.00000000e+000
 1.00000000e-001
 5.00000000e-001
 1.00000000e-001
 1.00000000e-001
 5.00000000e-001
 2.00000000e-001
 1.00000000e-001
 5.00000000e-001
 3.00000000e-001
 1.00000000e-001
 5.00000000e-001
 4.00000000e-001
 1.00000000e-001
 4.00000000e-001
 5.00000000e-001
 1.00000000e-001
 3.00000000e-001
 5.00000000e-001
 1.00000000e-001
 2.00000000e-001
 5.00000000e-001
 1.00000000e-001
 1.00000000e-001
 5.00000000e-001
 1.00000000e-001
 0.00000000e+000
 5.00000000e-001
 1.00000000e-001
-1.00000000e-001
 5.00000000e-001
 1.00000000e-001
-2.00000000e-001
 5.00000000e-001
 1.00000000e-001
-3.00000000e-001
 5.00000000e-001
 1.00000000e-001
-4.00000000e-001
 5.00000000e-001
 1.00000000e-001
-5.00000000e-001
 4.00000000e-001
 1.00000000e-001
-5.00000000e-001
 3.00000000e-001
 1.00000000e-001
-5.00000000e-001
 2.00000000e-001
 1.00000000e-001
-5.00000000e-001
 1.00000000e-001
 1.00000000e-001
-5.00000000e-001
 0.00000000e+000
 1.00000000e-001
-5.00000000e-001
-1.00000000e-001
 1.00000000e-001
-5.00000000e-001
-2.00000000e-001
 1.00000000e-001
-5.00000000e-001
-3.00000000e-001
 1.00000000e-001
-5.00000000e-001
-4.00000000e-001
 1.00000000e-001
-4.00000000e-001
-4.00000000e-001
 0.00000000e+000
-4.00000000e-001
-3.00000000e-001
 0.00000000e+000
-4.00000000e-001
-2.00000000e-001
 0.00000000e+000
-4.00000000e-001
-1.00000000e-001
 0.00000000e+000
-4.00000000e-001
 0.00000000e+000
 0.00000000e+000
-4.00000000e-001
 1.00000000e-001
 0.00000000e+000
-4.00000000e-001
 2.00000000e-001
 0.00000000e+000
-4.00000000e-001
 3.00000000e-001
 0.00000000e+000
-4.00000000e-001
 4.00000000e-001
 0.00000000e+000
-3.00000000e-001
-4.00000000e-001
 0.00000000e+000
-3.00000000e-001
-3.00000000e-001
 0.00000000e+000
-3.00000000e-001
-2.00000000e-001
 0.00000000e+000
-3.00000000e-001
-1.00000000e-001
 0.00000000e+000
-3.00000000e-001
 0.00000000e+000
 0.00000000e+000
-3.00000000e-001
 1.00000000e-001
 0.00000000e+000
-3.00000000e-001
 2.00000000e-001
 0.00000000e+000
-3.00000000e-001
 3.00000000e-001
 0.00000000e+000
-3.00000000e-001
 4.00000000e-001
 0.00000000e+000
-2.00000000e-001
-4.00000000e-001
 0.00000000e+000
-2.00000000e-001
-3.00000000e-001
 0.00000000e+000
-2.00000000e-001
-2.00000000e-001
 0.00000000e+000
-2.00000000e-001
-1.00000000e-001
 0.00000000e+000
-2.00000000e-001
 0.00000000e+000
 0.00000000e+000
-2.00000000e-001
 1.00000000e-001
 0.00000000e+000
-2.00000000e-001
 2.00000000e-001
 0.00000000e+000
-2.00000000e-001
 3.00000000e-001
 0.00000000e+000
-2.00000000e-001
 4.00000000e-001
 0.00000000e+000
-1.00000000e-001
-4.00000000e-001
 0.00000000e+000
-1.00000000e-001
-3.00000000e-001
 0.00000000e+000
-1.00000000e-001
-2.00000000e-001
 0.00000000e+000
-1.00000000e-001
-1.00000000e-001
 0.00000000e+000
-1.00000000e-001
 0.00000000e+000
 0.00000000e+000
-1.00000000e-001
 1.00000000e-001
 0.00000000e+000
-1.00000000e-001
 2.00000000e-001
 0.00000000e+000
-1.00000000e-001
 3.00000000e-001
 0.00000000e+000
-1.00000000e-001
 4.00000000e-001
 0.00000000e+000
 0.00000000e+000
-4.00000000e-001
 0.00000000e+000
 0.00000000e+000
-3.00000000e-001
 0.00000000e+000
 0.00000000e+000
-2.00000000e-001
 0.00000000e+000
 0.00000000e+000
-1.00000000e-001
 0.00000000e+000
 0.00000000e+000
 0.00000000e+000
 0.00000000e+000
 0.00000000e+000
 1.00000000e-001
 0.00000000e+000
 0.00000000e+000
 2.00000000e-001
 0.00000000e+000
 0.00000000e+000
 3.00000000e-001
 0.00000000e+000
 0.00000000e+000
 4.00000000e-001
 0.00000000e+000
 1.00000000e-001
-4.00000000e-001
 0.00000000e+000
 1.00000000e-001
-3.00000000e-001
 0.00000000e+000
 1.00000000e-001
-2.00000000e-001
 0.00000000e+000
 1.00000000e-001
-1.00000000e-001
 0.00000000e+000
 1.00000000e-001
 0.00000000e+000
 0.00000000e+000
 1.00000000e-001
 1.00000000e-001
 0.00000000e+000
 1.00000000e-001
 2.00000000e-001
 0.00000000e+000
 1.00000000e-001
 3.00000000e-001
 0.00000000e+000
 1.00000000e-001
 4.00000000e-001
 0.00000000e+000
 2.00000000e-001
-4.00000000e-001
 0.00000000e+000
 2.00000000e-001
-3.00000000e-001
 0.00000000e+000
 2.00000000e-001
-2.00000000e-001
 0.00000000e+000
 2.00000000e-001
-1.00000000e-001
 0.00000000e+000
 2.00000000e-001
 0.00000000e+000
 0.00000000e+000
 2.00000000e-001
 1.00000000e-001
 0.00000000e+000
 2.00000000e-001
 2.00000000e-001
 0.00000000e+000
 2.00000000e-001
 3.00000000e-001
 0.00000000e+000
 2.00000000e-001
 4.00000000e-001
 0.00000000e+000
 3.00000000e-001
-4.00000000e-001
 0.00000000e+000
 3.00000000e-001
-3.00000000e-001
 0.00000000e+000
 3.00000000e-001
-2.00000000e-001
 0.00000000e+000
 3.00000000e-001
-1.00000000e-001
 0.00000000e+000
 3.00000000e-001
 0.00000000e+000
 0.00000000e+000
 3.00000000e-001
 1.00000000e-001
 0.00000000e+000
 3.00000000e-001
 2.00000000e-001
 0.00000000e+000
 3.00000000e-001
 3.00000000e-001
 0.00000000e+000
 3.00000000e-001
 4.00000000e-001
 0.00000000e+000
 4.00000000e-001
-4.00000000e-001
 0.00000000e+000
 4.00000000e-001
-3.00000000e-001
 0.00000000e+000
 4.00000000e-001
-2.00000000e-001
 0.00000000e+000
 4.00000000e-001
-1.00000000e-001
 0.00000000e+000
 4.00000000e-001
 0.00000000e+000
 0.00000000e+000
 4.00000000e-001
 1.00000000e-001
 0.00000000e+000
 4.00000000e-001
 2.00000000e-001
 0.00000000e+000
 4.00000000e-001
 3.00000000e-001
 0.00000000e+000
 4.00000000e-001
 4.00000000e-001
 0.00000000e+000
-4.00000000e-001
-4.00000000e-001
 1.00000000e-001
-4.00000000e-001
-3.00000000e-001
 1.00000000e-001
-4.00000000e-001
-2.00000000e-001
 1.00000000e-001
-4.00000000e-001
-1.00000000e-001
 1.00000000e-001
-4.00000000e-001
 0.00000000e+000
 1.00000000e-001
-4.00000000e-001
 1.00000000e-001
 1.00000000e-001
-4.00000000e-001
 2.00000000e-001
 1.00000000e-001
-4.00000000e-001
 3.00000000e-001
 1.00000000e-001
-4.00000000e-001
 4.00000000e-001
 1.00000000e-001
-3.00000000e-001
-4.00000000e-001
 1.00000000e-001
-3.00000000e-001
-3.00000000e-001
 1.00000000e-001
-3.00000000e-001
-2.00000000e-001
 1.00000000e-001
-3.00000000e-001
-1.00000000e-001
 1.00000000e-001
-3.00000000e-001
 0.00000000e+000
 1.00000000e-001
-3.00000000e-001
 1.00000000e-001
 1.00000000e-001
-3.00000000e-001
 2.00000000e-001
 1.00000000e-001
-3.00000000e-001
 3.00000000e-001
 1.00000000e-001
-3.00000000e-001
 4.00000000e-001
 1.00000000e-001
-2.00000000e-001
-4.00000000e-001
 1.00000000e-001
-2.00000000e-001
-3.00000000e-001
 1.00000000e-001
-2.00000000e-001
-2.00000000e-001
 1.00000000e-001
-2.00000000e-001
-1.00000000e-001
 1.00000000e-001
-2.00000000e-001
 0.00000000e+000
 1.00000000e-001
-2.00000000e-001
 1.00000000e-001
 1.00000000e-001
-2.00000000e-001
 2.00000000e-001
 1.00000000e-001
-2.00000000e-001
 3.00000000e-001
 1.00000000e-001
-2.00000000e-001
 4.00000000e-001
 1.00000000e-001
-1.00000000e-001
-4.00000000e-001
 1.00000000e-001
-1.00000000e-001
-3.00000000e-001
 1.00000000e-001
-1.00000000e-001
-2.00000000e-001
 1.00000000e-001
-1.00000000e-001
-1.00000000e-001
 1.00000000e-001
-1.00000000e-001
 0.00000000e+000
 1.00000000e-001
-1.00000000e-001
 1.00000000e-001
 1.00000000e-001
-1.00000000e-001
 2.00000000e-001
 1.00000000e-001
-1.00000000e-001
 3.00000000e-001
 1.00000000e-001
-1.00000000e-001
 4.00000000e-001
 1.00000000e-001
 0.00000000e+000
-4.00000000e-001
 1.00000000e-001
 0.00000000e+000
-3.00000000e-001
 1.00000000e-001
 0.00000000e+000
-2.00000000e-001
 1.00000000e-001
 0.00000000e+000
-1.00000000e-001
 1.00000000e-001
 0.00000000e+000
 0.00000000e+000
 1.00000000e-001
 0.00000000e+000
 1.00000000e-001
 1.00000000e-001
 0.00000000e+000
 2.00000000e-001
 1.00000000e-001
 0.00000000e+000
 3.00000000e-001
 1.00000000e-001
 0.00000000e+000
 4.00000000e-001
 1.00000000e-001
 1.00000000e-001
-4.00000000e-001
 1.00000000e-001
 1.00000000e-001
-3.00000000e-001
 1.00000000e-001
 1.00000000e-001
-2.00000000e-001
 1.00000000e-001
 1.00000000e-001
-1.00000000e-001
 1.00000000e-001
 1.00000000e-001
 0.00000000e+000
 1.00000000e-001
 1.00000000e-001
 1.00000000e-001
 1.00000000e-001
 1.00000000e-001
 2.00000000e-001
 1.00000000e-001
 1.00000000e-001
 3.00000000e-001
 1.00000000e-001
 1.00000000e-001
 4.00000000e-001
 1.00000000e-001
 2.00000000e-001
-4.00000000e-001
 1.00000000e-001
 2.00000000e-001
-3.00000000e-001
 1.00000000e-001
 2.00000000e-001
-2.00000000e-001
 1.00000000e-001
 2.00000000e-001
-1.00000000e-001
 1.00000000e-001
 2.00000000e-001
 0.00000000e+000
 1.00000000e-001
 2.00000000e-001
 1.00000000e-001
 1.00000000e-001
 2.00000000e-001
 2.00000000e-001
 1.00000000e-001
 2.00000000e-001
 3.00000000e-001
 1.00000000e-001
 2.00000000e-001
 4.00000000e-001
 1.00000000e-001
 3.00000000e-001
-4.00000000e-001
 1.00000000e-001
 3.00000000e-001
-3.00000000e-001
 1.00000000e-001
 3.00000000e-001
-2.00000000e-001
 1.00000000e-001
 3.00000000e-001
-1.00000000e-001
 1.00000000e-001
 3.00000000e-001
 0.00000000e+000
 1.00000000e-001
 3.00000000e-001
 1.00000000e-001
 1.00000000e-001
 3.00000000e-001
 2.00000000e-001
 1.00000000e-001
 3.00000000e-001
 3.00000000e-001
 1.00000000e-001
 3.00000000e-001
 4.00000000e-001
 1.00000000e-001
 4.00000000e-001
-4.00000000e-001
 1.00000000e-001
 4.00000000e-001
-3.00000000e-001
 1.00000000e-001
 4.00000000e-001
-2.00000000e-001
 1.00000000e-001
 4.00000000e-001
-1.00000000e-001
 1.00000000e-001
 4.00000000e-001
 0.00000000e+000
 1.00000000e-001
 4.00000000e-001
 1.00000000e-001
 1.00000000e-001
 4.00000000e-001
 2.00000000e-001
 1.00000000e-001
 4.00000000e-001
 3.00000000e-001
 1.00000000e-001
 4.00000000e-001
 4.00000000e-001
 1.00000000e-001
</DataArray>
</Points>
<Cells>
<DataArray Name="connectivity" type="Int32" format="ascii" >
0	8	80	43	4	44	161	79	
43	80	81	42	79	161	162	78	
42	81	82	41	78	162	163	77	
41	82	83	40	77	163	164	76	
40	83	84	39	76	164	165	75	
39	84	85	38	75	165	166	74	
38	85	86	37	74	166	167	73	
37	86	87	36	73	167	168	72	
36	87	88	35	72	168	169	71	
35	88	34	3	71	169	70	7	
8	9	89	80	44	45	170	161	
80	89	90	81	161	170	171	162	
81	90	91	82	162	171	172	163	
82	91	92	83	163	172	173	164	
83	92	93	84	164	173	174	165	
84	93	94	85	165	174	175	166	
85	94	95	86	166	175	176	167	
86	95	96	87	167	176	177	168	
87	96	97	88	168	177	178	169	
88	97	33	34	169	178	69	70	
9	10	98	89	45	46	179	170	
89	98	99	90	170	179	180	171	
90	99	100	91	171	180	181	172	
91	100	101	92	172	181	182	173	
92	101	102	93	173	182	183	174	
93	102	103	94	174	183	184	175	
94	103	104	95	175	184	185	176	
95	104	105	96	176	185	186	177	
96	105	106	97	177	186	187	178	
97	106	32	33	178	187	68	69	
10	11	107	98	46	47	188	179	
98	107	108	99	179	188	189	180	
99	108	109	100	180	189	190	181	
100	109	110	101	181	190	191	182	
101	110	111	102	182	191	192	183	
102	111	112	103	183	192	193	184	
103	112	113	104	184	193	194	185	
104	113	114	105	185	194	195	186	
105	114	115	106	186	195	196	187	
106	115	31	32	187	196	67	68	
11	12	116	107	47	48	197	188	
107	116	117	108	188	197	198	189	
108	117	118	109	189	198	199	190	
109	118	119	110	190	199	200	191	
110	119	120	111	191	200	201	192	
111	120	121	112	192	201	202	193	
112	121	122	113	193	202	203	194	
113	122	123	114	194	203	204	195	
114	123	124	115	195	204	205	196	
115	124	30	31	196	205	66	67	
12	13	125	116	48	49	206	197	
116	125	126	117	197	206	207	198	
117	126	127	118	198	207	208	199	
118	127	128	119	199	208	209	200	
119	128	129	120	200	209	210	201	
120	129	130	121	201	210	211	202	
121	130	131	122	202	211	212	203	
122	131	132	123	203	212	213	204	
123	132	133	124	204	213	214	205	
124	133	29	30	205	214	65	66	
13	14	134	125	49	50	215	206	
125	134	135	126	206	215	216	207	
126	135	136	127	207	216	217	208	
127	136	137	128	208	217	218	209	
128	137	138	129	209	218	219	210	
129	138	139	130	210	219	220	211	
130	139	140	131	211	220	221	212	
131	140	141	132	212	221	222	213	
132	141	142	133	213	222	223	214	
133	142	28	29	214	223	64	65	
14	15	143	134	50	51	224	215	
134	143	144	135	215	224	225	216	
135	144	145	136	216	225	226	217	
136	145	146	137	217	226	227	218	
137	146	147	138	218	227	228	219	
138	147	148	139	219	228	229	220	
139	148	149	140	220	229	230	221	
140	149	150	141	221	230	231	222	
141	150	151	142	222	231	232	223	
142	151	27	28	223	232	63	64	
15	16	152	143	51	52	233	224	
143	152	153	144	224	233	234	225	
144	153	154	145	225	234	235	226	
145	154	155	146	226	235	236	227	
146	155	156	147	227	236	237	228	
147	156	157	148	228	237	238	229	
148	157	158	149	229	238	239	230	
149	158	159	150	230	239	240	231	
150	159	160	151	231	240	241	232	
151	160	26	27	232	241	62	63	
16	1	17	152	52	5	53	233	
152	17	18	153	233	53	54	234	
153	18	19	154	234	54	55	235	
154	19	20	155	235	55	56	236	
155	20	21	156	236	56	57	237	
156	21	22	157	237	57	58	238	
157	22	23	158	238	58	59	239	
158	23	24	159	239	59	60	240	
159	24	25	160	240	60	61	241	
160	25	2	26	241	61	6	62	
</DataArray>
<DataArray Name="offsets" type="Int32" format="ascii" >
8
16
24
32
40
48
56
64
72
80
88
96
104
112
120
128
136
144
152
160
168
176
184
192
200
208
216
224
232
240
248
256
264
272
280
288
296
304
312
320
328
336
344
352
360
368
376
384
392
400
408
416
424
432
440
448
456
464
472
480
488
496
504
512
520
528
536
544
552
560
568
576
584
592
600
608
616
624
632
640
648
656
664
672
680
688
696
704
712
720
728
736
744
752
760
768
776
784
792
800
</DataArray>
<DataArray Name="types" type="UInt8" format="ascii" >
12
12
12
12
12
12
12
12
12
12
12
12
12
12
12
12
12
12
12
12
12
12
12
12
12
12
12
12
12
12
12
12
12
12
12
12
12
12
12
12
12
12
12
12
12
12
12
12
12
12
12
12
12
12
12
12
12
12
12
12
12
12
12
12
12
12
12
12
12
12
12
12
12
12
12
12
12
12
12
12
12
12
12
12
12
12
12
12
12
12
12
12
12
12
12
12
12
12
12
12
</DataArray>
</Cells>

<PointData Scalars="scalars" format="ascii">
<DataArray Name=" p" type="Float32" format="ascii" >
6.71913053e-001 
1.49159682e+000 
2.42796873e+001 
-2.18750975e+001 
6.71913053e-001 
1.49159682e+000 
2.42796873e+001 
-2.18750975e+001 
5.85496889e-001 
4.95605636e-001 
5.69395112e-001 
7.83686760e-001 
1.08025284e+000 
1.37774588e+000 
1.59396872e+000 
1.66894879e+000 
1.57862845e+000 
1.41015799e+000 
1.30058917e+000 
1.32700250e+000 
1.57217013e+000 
2.18356915e+000 
3.42439805e+000 
5.72204229e+000 
9.96398441e+000 
1.85040119e+001 
1.71525881e+001 
7.61778699e+000 
4.07843246e+000 
2.25354126e+000 
1.01678561e+000 
-1.99632074e-001 
-1.95759945e+000 
-5.39083619e+000 
-1.48070518e+001 
-1.61535911e+001 
-7.71575376e+000 
-3.53978494e+000 
-1.26609560e+000 
-3.08613829e-002 
5.83169213e-001 
8.32314049e-001 
8.61349348e-001 
7.53000388e-001 
5.85496889e-001 
4.95605636e-001 
5.69395112e-001 
7.83686760e-001 
1.08025284e+000 
1.37774588e+000 
1.59396872e+000 
1.66894879e+000 
1.57862845e+000 
1.41015799e+000 
1.30058917e+000 
1.32700250e+000 
1.57217013e+000 
2.18356915e+000 
3.42439805e+000 
5.72204229e+000 
9.96398441e+000 
1.85040119e+001 
1.71525881e+001 
7.61778699e+000 
4.07843246e+000 
2.25354126e+000 
1.01678561e+000 
-1.99632074e-001 
-1.95759945e+000 
-5.39083619e+000 
-1.48070518e+001 
-1.61535911e+001 
-7.71575376e+000 
-3.53978494e+000 
-1.26609560e+000 
-3.08613829e-002 
5.83169213e-001 
8.32314049e-001 
8.61349348e-001 
7.53000388e-001 
6.59831277e-001 
7.40231913e-001 
6.70286435e-001 
3.93737701e-001 
-2.00944112e-001 
-1.29274433e+000 
-3.13397081e+000 
-6.15170485e+000 
-1.14164598e+001 
5.64890726e-001 
6.19433855e-001 
5.17012136e-001 
2.44900893e-001 
-2.54551687e-001 
-1.04950330e+000 
-2.18452910e+000 
-3.59040135e+000 
-4.86600726e+000 
6.32188943e-001 
6.83620556e-001 
6.07006330e-001 
4.11648173e-001 
7.19812520e-002 
-4.32250294e-001 
-1.09158860e+000 
-1.79211280e+000 
-2.04278445e+000 
8.21126275e-001 
8.52693004e-001 
8.11812943e-001 
7.08514315e-001 
5.33566176e-001 
2.84359013e-001 
-2.17900602e-002 
-3.13464041e-001 
-3.20585700e-001 
1.08020727e+000 
1.07916031e+000 
1.07546441e+000 
1.06732932e+000 
1.05281159e+000 
1.03165197e+000 
1.00861406e+000 
9.95366091e-001 
1.00492958e+000 
1.34019981e+000 
1.30678522e+000 
1.34110607e+000 
1.42973761e+000 
1.57830867e+000 
1.78892934e+000 
2.05305736e+000 
2.32152873e+000 
2.34995255e+000 
1.53104227e+000 
1.47836479e+000 
1.55048998e+000 
1.73533354e+000 
2.05582192e+000 
2.53213592e+000 
3.16190958e+000 
3.85084688e+000 
4.13361798e+000 
1.59951634e+000 
1.54427386e+000 
1.64426127e+000 
1.91047277e+000 
2.39955986e+000 
3.18096589e+000 
4.30529152e+000 
5.72139006e+000 
7.05184149e+000 
1.50404258e+000 
1.42277763e+000 
1.49060354e+000 
1.76324653e+000 
2.35356626e+000 
3.44510890e+000 
5.29819417e+000 
8.36077340e+000 
1.37111082e+001 
6.59831277e-001 
7.40231913e-001 
6.70286435e-001 
3.93737701e-001 
-2.00944112e-001 
-1.29274433e+000 
-3.13397081e+000 
-6.15170485e+000 
-1.14164598e+001 
5.64890726e-001 
6.19433855e-001 
5.17012136e-001 
2.44900893e-001 
-2.54551687e-001 
-1.04950330e+000 
-2.18452910e+000 
-3.59040135e+000 
-4.86600726e+000 
6.32188943e-001 
6.83620556e-001 
6.07006330e-001 
4.11648173e-001 
7.19812520e-002 
-4.32250294e-001 
-1.09158860e+000 
-1.79211280e+000 
-2.04278445e+000 
8.21126275e-001 
8.52693004e-001 
8.11812943e-001 
7.08514315e-001 
5.33566176e-001 
2.84359013e-001 
-2.17900602e-002 
-3.13464041e-001 
-3.20585700e-001 
1.08020727e+000 
1.07916031e+000 
1.07546441e+000 
1.06732932e+000 
1.05281159e+000 
1.03165197e+000 
1.00861406e+000 
9.95366091e-001 
1.00492958e+000 
1.34019981e+000 
1.30678522e+000 
1.34110607e+000 
1.42973761e+000 
1.57830867e+000 
1.78892934e+000 
2.05305736e+000 
2.32152873e+000 
2.34995255e+000 
1.53104227e+000 
1.47836479e+000 
1.55048998e+000 
1.73533354e+000 
2.05582192e+000 
2.53213592e+000 
3.16190958e+000 
3.85084688e+000 
4.13361798e+000 
1.59951634e+000 
1.54427386e+000 
1.64426127e+000 
1.91047277e+000 
2.39955986e+000 
3.18096589e+000 
4.30529152e+000 
5.72139006e+000 
7.05184149e+000 
1.50404258e+000 
1.42277763e+000 
1.49060354e+000 
1.76324653e+000 
2.35356626e+000 
3.44510890e+000 
5.29819417e+000 
8.36077340e+000 
1.37111082e+001 
</DataArray>

<DataArray Name="Var" type="Float32" format="ascii" >
0.00000000e+000
0.00000000e+000
1.00000000e+000
0.00000000e+000
0.00000000e+000
0.00000000e+000
1.00000000e+000
0.00000000e+000
0.00000000e+000
0.00000000e+000
0.00000000e+000
0.00000000e+000
0.00000000e+000
0.00000000e+000
0.00000000e+000
0.00000000e+000
0.00000000e+000
0.00000000e+000
0.00000000e+000
0.00000000e+000
0.00000000e+000
0.00000000e+000
0.00000000e+000
0.00000000e+000
0.00000000e+000
0.00000000e+000
1.00000000e+000
1.00000000e+000
1.00000000e+000
1.00000000e+000
1.00000000e+000
1.00000000e+000
1.00000000e+000
1.00000000e+000
1.00000000e+000
0.00000000e+000
0.00000000e+000
0.00000000e+000
0.00000000e+000
0.00000000e+000
0.00000000e+000
0.00000000e+000
0.00000000e+000
0.00000000e+000
0.00000000e+000
0.00000000e+000
0.00000000e+000
0.00000000e+000
0.00000000e+000
0.00000000e+000
0.00000000e+000
0.00000000e+000
0.00000000e+000
0.00000000e+000
0.00000000e+000
0.00000000e+000
0.00000000e+000
0.00000000e+000
0.00000000e+000
0.00000000e+000
0.00000000e+000
0.00000000e+000
1.00000000e+000
1.00000000e+000
1.00000000e+000
1.00000000e+000
1.00000000e+000
1.00000000e+000
1.00000000e+000
1.00000000e+000
1.00000000e+000
0.00000000e+000
0.00000000e+000
0.00000000e+000
0.00000000e+000
0.00000000e+000
0.00000000e+000
0.00000000e+000
0.00000000e+000
0.00000000e+000
-6.92028859e-003
-1.50562083e-002
-2.33226390e-002
-3.28074707e-002
-4.42446072e-002
-5.64258339e-002
-6.10804301e-002
-2.64411426e-002
1.67727106e-001
-2.20058491e-002
-4.20064700e-002
-6.10563143e-002
-8.03693365e-002
-9.86776908e-002
-1.09332602e-001
-9.35161344e-002
-5.10945893e-003
2.67201643e-001
-4.04267792e-002
-7.26078567e-002
-1.01468523e-001
-1.27740783e-001
-1.46805561e-001
-1.45436556e-001
-9.59525965e-002
5.25503516e-002
3.82934710e-001
-5.42302937e-002
-9.47515490e-002
-1.29550215e-001
-1.58919386e-001
-1.75736272e-001
-1.62672094e-001
-8.83928361e-002
9.51513178e-002
4.47257528e-001
-5.93272405e-002
-1.02814429e-001
-1.39604355e-001
-1.69830141e-001
-1.85450164e-001
-1.67732829e-001
-8.43993392e-002
1.10685519e-001
4.67979069e-001
-5.43354822e-002
-9.49399317e-002
-1.29881746e-001
-1.59467974e-001
-1.76495030e-001
-1.63417921e-001
-8.86090249e-002
9.59806435e-002
4.48702967e-001
-4.05615764e-002
-7.28646678e-002
-1.01952012e-001
-1.28590914e-001
-1.48053125e-001
-1.46761328e-001
-9.64863172e-002
5.38145800e-002
3.85509920e-001
-2.20846445e-002
-4.21802141e-002
-6.14339454e-002
-8.11185292e-002
-9.99063425e-002
-1.10824824e-001
-9.44015790e-002
-4.09917431e-003
2.69903241e-001
-6.93304194e-003
-1.51059568e-002
-2.34740983e-002
-3.31765294e-002
-4.49486842e-002
-5.74147070e-002
-6.18190874e-002
-2.58319979e-002
1.69608127e-001
-6.92028859e-003
-1.50562083e-002
-2.33226390e-002
-3.28074707e-002
-4.42446072e-002
-5.64258339e-002
-6.10804301e-002
-2.64411426e-002
1.67727106e-001
-2.20058491e-002
-4.20064700e-002
-6.10563143e-002
-8.03693365e-002
-9.86776908e-002
-1.09332602e-001
-9.35161344e-002
-5.10945893e-003
2.67201643e-001
-4.04267792e-002
-7.26078567e-002
-1.01468523e-001
-1.27740783e-001
-1.46805561e-001
-1.45436556e-001
-9.59525965e-002
5.25503516e-002
3.82934710e-001
-5.42302937e-002
-9.47515490e-002
-1.29550215e-001
-1.58919386e-001
-1.75736272e-001
-1.62672094e-001
-8.83928361e-002
9.51513178e-002
4.47257528e-001
-5.93272405e-002
-1.02814429e-001
-1.39604355e-001
-1.69830141e-001
-1.85450164e-001
-1.67732829e-001
-8.43993392e-002
1.10685519e-001
4.67979069e-001
-5.43354822e-002
-9.49399317e-002
-1.29881746e-001
-1.59467974e-001
-1.76495030e-001
-1.63417921e-001
-8.86090249e-002
9.59806435e-002
4.48702967e-001
-4.05615764e-002
-7.28646678e-002
-1.01952012e-001
-1.28590914e-001
-1.48053125e-001
-1.46761328e-001
-9.64863172e-002
5.38145800e-002
3.85509920e-001
-2.20846445e-002
-4.21802141e-002
-6.14339454e-002
-8.11185292e-002
-9.99063425e-002
-1.10824824e-001
-9.44015790e-002
-4.09917431e-003
2.69903241e-001
-6.93304194e-003
-1.51059568e-002
-2.34740983e-002
-3.31765294e-002
-4.49486842e-002
-5.74147070e-002
-6.18190874e-002
-2.58319979e-002
1.69608127e-001
</DataArray>


<DataArray Name="U" NumberOfComponents="3" type="Float32" format="ascii" >
-5.00000000e-001
-5.00000000e-001
 0.00000000e+000
 5.00000000e-001
-5.00000000e-001
 0.00000000e+000
 5.00000000e-001
 5.00000000e-001
 0.00000000e+000
-5.00000000e-001
 5.00000000e-001
 0.00000000e+000
-5.00000000e-001
-5.00000000e-001
 1.00000000e-001
 5.00000000e-001
-5.00000000e-001
 1.00000000e-001
 5.00000000e-001
 5.00000000e-001
 1.00000000e-001
-5.00000000e-001
 5.00000000e-001
 1.00000000e-001
-4.00000000e-001
-5.00000000e-001
 0.00000000e+000
-3.00000000e-001
-5.00000000e-001
 0.00000000e+000
-2.00000000e-001
-5.00000000e-001
 0.00000000e+000
-1.00000000e-001
-5.00000000e-001
 0.00000000e+000
 0.00000000e+000
-5.00000000e-001
 0.00000000e+000
 1.00000000e-001
-5.00000000e-001
 0.00000000e+000
 2.00000000e-001
-5.00000000e-001
 0.00000000e+000
 3.00000000e-001
-5.00000000e-001
 0.00000000e+000
 4.00000000e-001
-5.00000000e-001
 0.00000000e+000
 5.00000000e-001
-4.00000000e-001
 0.00000000e+000
 5.00000000e-001
-3.00000000e-001
 0.00000000e+000
 5.00000000e-001
-2.00000000e-001
 0.00000000e+000
 5.00000000e-001
-1.00000000e-001
 0.00000000e+000
 5.00000000e-001
 0.00000000e+000
 0.00000000e+000
 5.00000000e-001
 1.00000000e-001
 0.00000000e+000
 5.00000000e-001
 2.00000000e-001
 0.00000000e+000
 5.00000000e-001
 3.00000000e-001
 0.00000000e+000
 5.00000000e-001
 4.00000000e-001
 0.00000000e+000
 4.00000000e-001
 5.00000000e-001
 0.00000000e+000
 3.00000000e-001
 5.00000000e-001
 0.00000000e+000
 2.00000000e-001
 5.00000000e-001
 0.00000000e+000
 1.00000000e-001
 5.00000000e-001
 0.00000000e+000
 0.00000000e+000
 5.00000000e-001
 0.00000000e+000
-1.00000000e-001
 5.00000000e-001
 0.00000000e+000
-2.00000000e-001
 5.00000000e-001
 0.00000000e+000
-3.00000000e-001
 5.00000000e-001
 0.00000000e+000
-4.00000000e-001
 5.00000000e-001
 0.00000000e+000
-5.00000000e-001
 4.00000000e-001
 0.00000000e+000
-5.00000000e-001
 3.00000000e-001
 0.00000000e+000
-5.00000000e-001
 2.00000000e-001
 0.00000000e+000
-5.00000000e-001
 1.00000000e-001
 0.00000000e+000
-5.00000000e-001
 0.00000000e+000
 0.00000000e+000
-5.00000000e-001
-1.00000000e-001
 0.00000000e+000
-5.00000000e-001
-2.00000000e-001
 0.00000000e+000
-5.00000000e-001
-3.00000000e-001
 0.00000000e+000
-5.00000000e-001
-4.00000000e-001
 0.00000000e+000
-4.00000000e-001
-5.00000000e-001
 1.00000000e-001
-3.00000000e-001
-5.00000000e-001
 1.00000000e-001
-2.00000000e-001
-5.00000000e-001
 1.00000000e-001
-1.00000000e-001
-5.00000000e-001
 1.00000000e-001
 0.00000000e+000
-5.00000000e-001
 1.00000000e-001
 1.00000000e-001
-5.00000000e-001
 1.00000000e-001
 2.00000000e-001
-5.00000000e-001
 1.00000000e-001
 3.00000000e-001
-5.00000000e-001
 1.00000000e-001
 4.00000000e-001
-5.00000000e-001
 1.00000000e-001
 5.00000000e-001
-4.00000000e-001
 1.00000000e-001
 5.00000000e-001
-3.00000000e-001
 1.00000000e-001
 5.00000000e-001
-2.00000000e-001
 1.00000000e-001
 5.00000000e-001
-1.00000000e-001
 1.00000000e-001
 5.00000000e-001
 0.00000000e+000
 1.00000000e-001
 5.00000000e-001
 1.00000000e-001
 1.00000000e-001
 5.00000000e-001
 2.00000000e-001
 1.00000000e-001
 5.00000000e-001
 3.00000000e-001
 1.00000000e-001
 5.00000000e-001
 4.00000000e-001
 1.00000000e-001
 4.00000000e-001
 5.00000000e-001
 1.00000000e-001
 3.00000000e-001
 5.00000000e-001
 1.00000000e-001
 2.00000000e-001
 5.00000000e-001
 1.00000000e-001
 1.00000000e-001
 5.00000000e-001
 1.00000000e-001
 0.00000000e+000
 5.00000000e-001
 1.00000000e-001
-1.00000000e-001
 5.00000000e-001
 1.00000000e-001
-2.00000000e-001
 5.00000000e-001
 1.00000000e-001
-3.00000000e-001
 5.00000000e-001
 1.00000000e-001
-4.00000000e-001
 5.00000000e-001
 1.00000000e-001
-5.00000000e-001
 4.00000000e-001
 1.00000000e-001
-5.00000000e-001
 3.00000000e-001
 1.00000000e-001
-5.00000000e-001
 2.00000000e-001
 1.00000000e-001
-5.00000000e-001
 1.00000000e-001
 1.00000000e-001
-5.00000000e-001
 0.00000000e+000
 1.00000000e-001
-5.00000000e-001
-1.00000000e-001
 1.00000000e-001
-5.00000000e-001
-2.00000000e-001
 1.00000000e-001
-5.00000000e-001
-3.00000000e-001
 1.00000000e-001
-5.00000000e-001
-4.00000000e-001
 1.00000000e-001
-4.00000000e-001
-4.00000000e-001
 0.00000000e+000
-4.00000000e-001
-3.00000000e-001
 0.00000000e+000
-4.00000000e-001
-2.00000000e-001
 0.00000000e+000
-4.00000000e-001
-1.00000000e-001
 0.00000000e+000
-4.00000000e-001
 0.00000000e+000
 0.00000000e+000
-4.00000000e-001
 1.00000000e-001
 0.00000000e+000
-4.00000000e-001
 2.00000000e-001
 0.00000000e+000
-4.00000000e-001
 3.00000000e-001
 0.00000000e+000
-4.00000000e-001
 4.00000000e-001
 0.00000000e+000
-3.00000000e-001
-4.00000000e-001
 0.00000000e+000
-3.00000000e-001
-3.00000000e-001
 0.00000000e+000
-3.00000000e-001
-2.00000000e-001
 0.00000000e+000
-3.00000000e-001
-1.00000000e-001
 0.00000000e+000
-3.00000000e-001
 0.00000000e+000
 0.00000000e+000
-3.00000000e-001
 1.00000000e-001
 0.00000000e+000
-3.00000000e-001
 2.00000000e-001
 0.00000000e+000
-3.00000000e-001
 3.00000000e-001
 0.00000000e+000
-3.00000000e-001
 4.00000000e-001
 0.00000000e+000
-2.00000000e-001
-4.00000000e-001